+ 0.5 0 2 tcp 40 ------- 1 0.0 3.0 0 0
- 0.5 0 2 tcp 40 ------- 1 0.0 3.0 0 0
r 0.51016 0 2 tcp 40 ------- 1 0.0 3.0 0 0
+ 0.51016 2 3 tcp 40 ------- 1 0.0 3.0 0 0
- 0.51016 2 3 tcp 40 ------- 1 0.0 3.0 0 0
r 0.52048 2 3 tcp 40 ------- 1 0.0 3.0 0 0
+ 0.52048 3 2 ack 40 ------- 1 3.0 0.0 0 1
- 0.52048 3 2 ack 40 ------- 1 3.0 0.0 0 1
r 0.5308 3 2 ack 40 ------- 1 3.0 0.0 0 1
+ 0.5308 2 0 ack 40 ------- 1 3.0 0.0 0 1
- 0.5308 2 0 ack 40 ------- 1 3.0 0.0 0 1
r 0.54096 2 0 ack 40 ------- 1 3.0 0.0 0 1
+ 0.54096 0 2 tcp 1040 ------- 1 0.0 3.0 1 2
- 0.54096 0 2 tcp 1040 ------- 1 0.0 3.0 1 2
+ 0.54096 0 2 tcp 1040 ------- 1 0.0 3.0 2 3
- 0.54512 0 2 tcp 1040 ------- 1 0.0 3.0 2 3
r 0.55512 0 2 tcp 1040 ------- 1 0.0 3.0 1 2
+ 0.55512 2 3 tcp 1040 ------- 1 0.0 3.0 1 2
- 0.55512 2 3 tcp 1040 ------- 1 0.0 3.0 1 2
r 0.55928 0 2 tcp 1040 ------- 1 0.0 3.0 2 3
+ 0.55928 2 3 tcp 1040 ------- 1 0.0 3.0 2 3
- 0.56344 2 3 tcp 1040 ------- 1 0.0 3.0 2 3
r 0.57344 2 3 tcp 1040 ------- 1 0.0 3.0 1 2
+ 0.57344 3 2 ack 40 ------- 1 3.0 0.0 1 4
- 0.57344 3 2 ack 40 ------- 1 3.0 0.0 1 4
r 0.58176 2 3 tcp 1040 ------- 1 0.0 3.0 2 3
+ 0.58176 3 2 ack 40 ------- 1 3.0 0.0 2 5
- 0.58176 3 2 ack 40 ------- 1 3.0 0.0 2 5
r 0.58376 3 2 ack 40 ------- 1 3.0 0.0 1 4
+ 0.58376 2 0 ack 40 ------- 1 3.0 0.0 1 4
- 0.58376 2 0 ack 40 ------- 1 3.0 0.0 1 4
r 0.59208 3 2 ack 40 ------- 1 3.0 0.0 2 5
+ 0.59208 2 0 ack 40 ------- 1 3.0 0.0 2 5
- 0.59208 2 0 ack 40 ------- 1 3.0 0.0 2 5
r 0.59392 2 0 ack 40 ------- 1 3.0 0.0 1 4
+ 0.59392 0 2 tcp 1040 ------- 1 0.0 3.0 3 6
- 0.59392 0 2 tcp 1040 ------- 1 0.0 3.0 3 6
+ 0.59392 0 2 tcp 1040 ------- 1 0.0 3.0 4 7
- 0.59808 0 2 tcp 1040 ------- 1 0.0 3.0 4 7
r 0.60224 2 0 ack 40 ------- 1 3.0 0.0 2 5
+ 0.60224 0 2 tcp 1040 ------- 1 0.0 3.0 5 8
+ 0.60224 0 2 tcp 1040 ------- 1 0.0 3.0 6 9
- 0.60224 0 2 tcp 1040 ------- 1 0.0 3.0 5 8
- 0.6064 0 2 tcp 1040 ------- 1 0.0 3.0 6 9
r 0.60808 0 2 tcp 1040 ------- 1 0.0 3.0 3 6
+ 0.60808 2 3 tcp 1040 ------- 1 0.0 3.0 3 6
- 0.60808 2 3 tcp 1040 ------- 1 0.0 3.0 3 6
r 0.61224 0 2 tcp 1040 ------- 1 0.0 3.0 4 7
+ 0.61224 2 3 tcp 1040 ------- 1 0.0 3.0 4 7
- 0.6164 2 3 tcp 1040 ------- 1 0.0 3.0 4 7
r 0.6164 0 2 tcp 1040 ------- 1 0.0 3.0 5 8
+ 0.6164 2 3 tcp 1040 ------- 1 0.0 3.0 5 8
r 0.62056 0 2 tcp 1040 ------- 1 0.0 3.0 6 9
+ 0.62056 2 3 tcp 1040 ------- 1 0.0 3.0 6 9
- 0.62472 2 3 tcp 1040 ------- 1 0.0 3.0 5 8
r 0.6264 2 3 tcp 1040 ------- 1 0.0 3.0 3 6
+ 0.6264 3 2 ack 40 ------- 1 3.0 0.0 3 10
- 0.6264 3 2 ack 40 ------- 1 3.0 0.0 3 10
- 0.63304 2 3 tcp 1040 ------- 1 0.0 3.0 6 9
r 0.63472 2 3 tcp 1040 ------- 1 0.0 3.0 4 7
+ 0.63472 3 2 ack 40 ------- 1 3.0 0.0 4 11
- 0.63472 3 2 ack 40 ------- 1 3.0 0.0 4 11
r 0.63672 3 2 ack 40 ------- 1 3.0 0.0 3 10
+ 0.63672 2 0 ack 40 ------- 1 3.0 0.0 3 10
- 0.63672 2 0 ack 40 ------- 1 3.0 0.0 3 10
r 0.64304 2 3 tcp 1040 ------- 1 0.0 3.0 5 8
+ 0.64304 3 2 ack 40 ------- 1 3.0 0.0 5 12
- 0.64304 3 2 ack 40 ------- 1 3.0 0.0 5 12
r 0.64504 3 2 ack 40 ------- 1 3.0 0.0 4 11
+ 0.64504 2 0 ack 40 ------- 1 3.0 0.0 4 11
- 0.64504 2 0 ack 40 ------- 1 3.0 0.0 4 11
r 0.64688 2 0 ack 40 ------- 1 3.0 0.0 3 10
+ 0.64688 0 2 tcp 1040 ------- 1 0.0 3.0 7 13
- 0.64688 0 2 tcp 1040 ------- 1 0.0 3.0 7 13
+ 0.64688 0 2 tcp 1040 ------- 1 0.0 3.0 8 14
- 0.65104 0 2 tcp 1040 ------- 1 0.0 3.0 8 14
r 0.65136 2 3 tcp 1040 ------- 1 0.0 3.0 6 9
+ 0.65136 3 2 ack 40 ------- 1 3.0 0.0 6 15
- 0.65136 3 2 ack 40 ------- 1 3.0 0.0 6 15
r 0.65336 3 2 ack 40 ------- 1 3.0 0.0 5 12
+ 0.65336 2 0 ack 40 ------- 1 3.0 0.0 5 12
- 0.65336 2 0 ack 40 ------- 1 3.0 0.0 5 12
r 0.6552 2 0 ack 40 ------- 1 3.0 0.0 4 11
+ 0.6552 0 2 tcp 1040 ------- 1 0.0 3.0 9 16
+ 0.6552 0 2 tcp 1040 ------- 1 0.0 3.0 10 17
- 0.6552 0 2 tcp 1040 ------- 1 0.0 3.0 9 16
- 0.65936 0 2 tcp 1040 ------- 1 0.0 3.0 10 17
r 0.66104 0 2 tcp 1040 ------- 1 0.0 3.0 7 13
+ 0.66104 2 3 tcp 1040 ------- 1 0.0 3.0 7 13
- 0.66104 2 3 tcp 1040 ------- 1 0.0 3.0 7 13
r 0.66168 3 2 ack 40 ------- 1 3.0 0.0 6 15
+ 0.66168 2 0 ack 40 ------- 1 3.0 0.0 6 15
- 0.66168 2 0 ack 40 ------- 1 3.0 0.0 6 15
r 0.66352 2 0 ack 40 ------- 1 3.0 0.0 5 12
+ 0.66352 0 2 tcp 1040 ------- 1 0.0 3.0 11 18
+ 0.66352 0 2 tcp 1040 ------- 1 0.0 3.0 12 19
- 0.66352 0 2 tcp 1040 ------- 1 0.0 3.0 11 18
r 0.6652 0 2 tcp 1040 ------- 1 0.0 3.0 8 14
+ 0.6652 2 3 tcp 1040 ------- 1 0.0 3.0 8 14
- 0.66768 0 2 tcp 1040 ------- 1 0.0 3.0 12 19
- 0.66936 2 3 tcp 1040 ------- 1 0.0 3.0 8 14
r 0.66936 0 2 tcp 1040 ------- 1 0.0 3.0 9 16
+ 0.66936 2 3 tcp 1040 ------- 1 0.0 3.0 9 16
r 0.67184 2 0 ack 40 ------- 1 3.0 0.0 6 15
+ 0.67184 0 2 tcp 1040 ------- 1 0.0 3.0 13 20
+ 0.67184 0 2 tcp 1040 ------- 1 0.0 3.0 14 21
- 0.67184 0 2 tcp 1040 ------- 1 0.0 3.0 13 20
r 0.67352 0 2 tcp 1040 ------- 1 0.0 3.0 10 17
+ 0.67352 2 3 tcp 1040 ------- 1 0.0 3.0 10 17
- 0.676 0 2 tcp 1040 ------- 1 0.0 3.0 14 21
- 0.67768 2 3 tcp 1040 ------- 1 0.0 3.0 9 16
r 0.67768 0 2 tcp 1040 ------- 1 0.0 3.0 11 18
+ 0.67768 2 3 tcp 1040 ------- 1 0.0 3.0 11 18
r 0.67936 2 3 tcp 1040 ------- 1 0.0 3.0 7 13
+ 0.67936 3 2 ack 40 ------- 1 3.0 0.0 7 22
- 0.67936 3 2 ack 40 ------- 1 3.0 0.0 7 22
r 0.68184 0 2 tcp 1040 ------- 1 0.0 3.0 12 19
+ 0.68184 2 3 tcp 1040 ------- 1 0.0 3.0 12 19
- 0.686 2 3 tcp 1040 ------- 1 0.0 3.0 10 17
r 0.686 0 2 tcp 1040 ------- 1 0.0 3.0 13 20
+ 0.686 2 3 tcp 1040 ------- 1 0.0 3.0 13 20
r 0.68768 2 3 tcp 1040 ------- 1 0.0 3.0 8 14
+ 0.68768 3 2 ack 40 ------- 1 3.0 0.0 8 23
- 0.68768 3 2 ack 40 ------- 1 3.0 0.0 8 23
r 0.68968 3 2 ack 40 ------- 1 3.0 0.0 7 22
+ 0.68968 2 0 ack 40 ------- 1 3.0 0.0 7 22
- 0.68968 2 0 ack 40 ------- 1 3.0 0.0 7 22
r 0.69016 0 2 tcp 1040 ------- 1 0.0 3.0 14 21
+ 0.69016 2 3 tcp 1040 ------- 1 0.0 3.0 14 21
- 0.69432 2 3 tcp 1040 ------- 1 0.0 3.0 11 18
r 0.696 2 3 tcp 1040 ------- 1 0.0 3.0 9 16
+ 0.696 3 2 ack 40 ------- 1 3.0 0.0 9 24
- 0.696 3 2 ack 40 ------- 1 3.0 0.0 9 24
r 0.698 3 2 ack 40 ------- 1 3.0 0.0 8 23
+ 0.698 2 0 ack 40 ------- 1 3.0 0.0 8 23
- 0.698 2 0 ack 40 ------- 1 3.0 0.0 8 23
r 0.69984 2 0 ack 40 ------- 1 3.0 0.0 7 22
+ 0.69984 0 2 tcp 1040 ------- 1 0.0 3.0 15 25
- 0.69984 0 2 tcp 1040 ------- 1 0.0 3.0 15 25
+ 0.69984 0 2 tcp 1040 ------- 1 0.0 3.0 16 26
- 0.70264 2 3 tcp 1040 ------- 1 0.0 3.0 12 19
- 0.704 0 2 tcp 1040 ------- 1 0.0 3.0 16 26
r 0.70432 2 3 tcp 1040 ------- 1 0.0 3.0 10 17
+ 0.70432 3 2 ack 40 ------- 1 3.0 0.0 10 27
- 0.70432 3 2 ack 40 ------- 1 3.0 0.0 10 27
r 0.70632 3 2 ack 40 ------- 1 3.0 0.0 9 24
+ 0.70632 2 0 ack 40 ------- 1 3.0 0.0 9 24
- 0.70632 2 0 ack 40 ------- 1 3.0 0.0 9 24
r 0.70816 2 0 ack 40 ------- 1 3.0 0.0 8 23
+ 0.70816 0 2 tcp 1040 ------- 1 0.0 3.0 17 28
+ 0.70816 0 2 tcp 1040 ------- 1 0.0 3.0 18 29
- 0.70816 0 2 tcp 1040 ------- 1 0.0 3.0 17 28
- 0.71096 2 3 tcp 1040 ------- 1 0.0 3.0 13 20
- 0.71232 0 2 tcp 1040 ------- 1 0.0 3.0 18 29
r 0.71264 2 3 tcp 1040 ------- 1 0.0 3.0 11 18
+ 0.71264 3 2 ack 40 ------- 1 3.0 0.0 11 30
- 0.71264 3 2 ack 40 ------- 1 3.0 0.0 11 30
r 0.714 0 2 tcp 1040 ------- 1 0.0 3.0 15 25
+ 0.714 2 3 tcp 1040 ------- 1 0.0 3.0 15 25
r 0.71464 3 2 ack 40 ------- 1 3.0 0.0 10 27
+ 0.71464 2 0 ack 40 ------- 1 3.0 0.0 10 27
- 0.71464 2 0 ack 40 ------- 1 3.0 0.0 10 27
r 0.71648 2 0 ack 40 ------- 1 3.0 0.0 9 24
+ 0.71648 0 2 tcp 1040 ------- 1 0.0 3.0 19 31
+ 0.71648 0 2 tcp 1040 ------- 1 0.0 3.0 20 32
- 0.71648 0 2 tcp 1040 ------- 1 0.0 3.0 19 31
r 0.71816 0 2 tcp 1040 ------- 1 0.0 3.0 16 26
+ 0.71816 2 3 tcp 1040 ------- 1 0.0 3.0 16 26
- 0.71928 2 3 tcp 1040 ------- 1 0.0 3.0 14 21
- 0.72064 0 2 tcp 1040 ------- 1 0.0 3.0 20 32
r 0.72096 2 3 tcp 1040 ------- 1 0.0 3.0 12 19
+ 0.72096 3 2 ack 40 ------- 1 3.0 0.0 12 33
- 0.72096 3 2 ack 40 ------- 1 3.0 0.0 12 33
r 0.72232 0 2 tcp 1040 ------- 1 0.0 3.0 17 28
+ 0.72232 2 3 tcp 1040 ------- 1 0.0 3.0 17 28
r 0.72296 3 2 ack 40 ------- 1 3.0 0.0 11 30
+ 0.72296 2 0 ack 40 ------- 1 3.0 0.0 11 30
- 0.72296 2 0 ack 40 ------- 1 3.0 0.0 11 30
r 0.7248 2 0 ack 40 ------- 1 3.0 0.0 10 27
+ 0.7248 0 2 tcp 1040 ------- 1 0.0 3.0 21 34
+ 0.7248 0 2 tcp 1040 ------- 1 0.0 3.0 22 35
- 0.7248 0 2 tcp 1040 ------- 1 0.0 3.0 21 34
r 0.72648 0 2 tcp 1040 ------- 1 0.0 3.0 18 29
+ 0.72648 2 3 tcp 1040 ------- 1 0.0 3.0 18 29
- 0.7276 2 3 tcp 1040 ------- 1 0.0 3.0 15 25
- 0.72896 0 2 tcp 1040 ------- 1 0.0 3.0 22 35
r 0.72928 2 3 tcp 1040 ------- 1 0.0 3.0 13 20
+ 0.72928 3 2 ack 40 ------- 1 3.0 0.0 13 36
- 0.72928 3 2 ack 40 ------- 1 3.0 0.0 13 36
r 0.73064 0 2 tcp 1040 ------- 1 0.0 3.0 19 31
+ 0.73064 2 3 tcp 1040 ------- 1 0.0 3.0 19 31
r 0.73128 3 2 ack 40 ------- 1 3.0 0.0 12 33
+ 0.73128 2 0 ack 40 ------- 1 3.0 0.0 12 33
- 0.73128 2 0 ack 40 ------- 1 3.0 0.0 12 33
r 0.73312 2 0 ack 40 ------- 1 3.0 0.0 11 30
+ 0.73312 0 2 tcp 1040 ------- 1 0.0 3.0 23 37
+ 0.73312 0 2 tcp 1040 ------- 1 0.0 3.0 24 38
- 0.73312 0 2 tcp 1040 ------- 1 0.0 3.0 23 37
r 0.7348 0 2 tcp 1040 ------- 1 0.0 3.0 20 32
+ 0.7348 2 3 tcp 1040 ------- 1 0.0 3.0 20 32
- 0.73592 2 3 tcp 1040 ------- 1 0.0 3.0 16 26
- 0.73728 0 2 tcp 1040 ------- 1 0.0 3.0 24 38
r 0.7376 2 3 tcp 1040 ------- 1 0.0 3.0 14 21
+ 0.7376 3 2 ack 40 ------- 1 3.0 0.0 14 39
- 0.7376 3 2 ack 40 ------- 1 3.0 0.0 14 39
r 0.73896 0 2 tcp 1040 ------- 1 0.0 3.0 21 34
+ 0.73896 2 3 tcp 1040 ------- 1 0.0 3.0 21 34
r 0.7396 3 2 ack 40 ------- 1 3.0 0.0 13 36
+ 0.7396 2 0 ack 40 ------- 1 3.0 0.0 13 36
- 0.7396 2 0 ack 40 ------- 1 3.0 0.0 13 36
r 0.74144 2 0 ack 40 ------- 1 3.0 0.0 12 33
+ 0.74144 0 2 tcp 1040 ------- 1 0.0 3.0 25 40
+ 0.74144 0 2 tcp 1040 ------- 1 0.0 3.0 26 41
- 0.74144 0 2 tcp 1040 ------- 1 0.0 3.0 25 40
r 0.74312 0 2 tcp 1040 ------- 1 0.0 3.0 22 35
+ 0.74312 2 3 tcp 1040 ------- 1 0.0 3.0 22 35
- 0.74424 2 3 tcp 1040 ------- 1 0.0 3.0 17 28
- 0.7456 0 2 tcp 1040 ------- 1 0.0 3.0 26 41
r 0.74592 2 3 tcp 1040 ------- 1 0.0 3.0 15 25
+ 0.74592 3 2 ack 40 ------- 1 3.0 0.0 15 42
- 0.74592 3 2 ack 40 ------- 1 3.0 0.0 15 42
r 0.74728 0 2 tcp 1040 ------- 1 0.0 3.0 23 37
+ 0.74728 2 3 tcp 1040 ------- 1 0.0 3.0 23 37
r 0.74792 3 2 ack 40 ------- 1 3.0 0.0 14 39
+ 0.74792 2 0 ack 40 ------- 1 3.0 0.0 14 39
- 0.74792 2 0 ack 40 ------- 1 3.0 0.0 14 39
r 0.74976 2 0 ack 40 ------- 1 3.0 0.0 13 36
+ 0.74976 0 2 tcp 1040 ------- 1 0.0 3.0 27 43
+ 0.74976 0 2 tcp 1040 ------- 1 0.0 3.0 28 44
- 0.74976 0 2 tcp 1040 ------- 1 0.0 3.0 27 43
r 0.75144 0 2 tcp 1040 ------- 1 0.0 3.0 24 38
+ 0.75144 2 3 tcp 1040 ------- 1 0.0 3.0 24 38
- 0.75256 2 3 tcp 1040 ------- 1 0.0 3.0 18 29
- 0.75392 0 2 tcp 1040 ------- 1 0.0 3.0 28 44
r 0.75424 2 3 tcp 1040 ------- 1 0.0 3.0 16 26
+ 0.75424 3 2 ack 40 ------- 1 3.0 0.0 16 45
- 0.75424 3 2 ack 40 ------- 1 3.0 0.0 16 45
r 0.7556 0 2 tcp 1040 ------- 1 0.0 3.0 25 40
+ 0.7556 2 3 tcp 1040 ------- 1 0.0 3.0 25 40
r 0.75624 3 2 ack 40 ------- 1 3.0 0.0 15 42
+ 0.75624 2 0 ack 40 ------- 1 3.0 0.0 15 42
- 0.75624 2 0 ack 40 ------- 1 3.0 0.0 15 42
r 0.75808 2 0 ack 40 ------- 1 3.0 0.0 14 39
+ 0.75808 0 2 tcp 1040 ------- 1 0.0 3.0 29 46
+ 0.75808 0 2 tcp 1040 ------- 1 0.0 3.0 30 47
- 0.75808 0 2 tcp 1040 ------- 1 0.0 3.0 29 46
r 0.75976 0 2 tcp 1040 ------- 1 0.0 3.0 26 41
+ 0.75976 2 3 tcp 1040 ------- 1 0.0 3.0 26 41
- 0.76088 2 3 tcp 1040 ------- 1 0.0 3.0 19 31
- 0.76224 0 2 tcp 1040 ------- 1 0.0 3.0 30 47
r 0.76256 2 3 tcp 1040 ------- 1 0.0 3.0 17 28
+ 0.76256 3 2 ack 40 ------- 1 3.0 0.0 17 48
- 0.76256 3 2 ack 40 ------- 1 3.0 0.0 17 48
r 0.76392 0 2 tcp 1040 ------- 1 0.0 3.0 27 43
+ 0.76392 2 3 tcp 1040 ------- 1 0.0 3.0 27 43
r 0.76456 3 2 ack 40 ------- 1 3.0 0.0 16 45
+ 0.76456 2 0 ack 40 ------- 1 3.0 0.0 16 45
- 0.76456 2 0 ack 40 ------- 1 3.0 0.0 16 45
r 0.7664 2 0 ack 40 ------- 1 3.0 0.0 15 42
+ 0.7664 0 2 tcp 1040 ------- 1 0.0 3.0 31 49
+ 0.7664 0 2 tcp 1040 ------- 1 0.0 3.0 32 50
- 0.7664 0 2 tcp 1040 ------- 1 0.0 3.0 31 49
r 0.76808 0 2 tcp 1040 ------- 1 0.0 3.0 28 44
+ 0.76808 2 3 tcp 1040 ------- 1 0.0 3.0 28 44
- 0.7692 2 3 tcp 1040 ------- 1 0.0 3.0 20 32
- 0.77056 0 2 tcp 1040 ------- 1 0.0 3.0 32 50
r 0.77088 2 3 tcp 1040 ------- 1 0.0 3.0 18 29
+ 0.77088 3 2 ack 40 ------- 1 3.0 0.0 18 51
- 0.77088 3 2 ack 40 ------- 1 3.0 0.0 18 51
r 0.77224 0 2 tcp 1040 ------- 1 0.0 3.0 29 46
+ 0.77224 2 3 tcp 1040 ------- 1 0.0 3.0 29 46
r 0.77288 3 2 ack 40 ------- 1 3.0 0.0 17 48
+ 0.77288 2 0 ack 40 ------- 1 3.0 0.0 17 48
- 0.77288 2 0 ack 40 ------- 1 3.0 0.0 17 48
r 0.77472 2 0 ack 40 ------- 1 3.0 0.0 16 45
+ 0.77472 0 2 tcp 1040 ------- 1 0.0 3.0 33 52
+ 0.77472 0 2 tcp 1040 ------- 1 0.0 3.0 34 53
- 0.77472 0 2 tcp 1040 ------- 1 0.0 3.0 33 52
r 0.7764 0 2 tcp 1040 ------- 1 0.0 3.0 30 47
+ 0.7764 2 3 tcp 1040 ------- 1 0.0 3.0 30 47
- 0.77752 2 3 tcp 1040 ------- 1 0.0 3.0 21 34
- 0.77888 0 2 tcp 1040 ------- 1 0.0 3.0 34 53
r 0.7792 2 3 tcp 1040 ------- 1 0.0 3.0 19 31
+ 0.7792 3 2 ack 40 ------- 1 3.0 0.0 19 54
- 0.7792 3 2 ack 40 ------- 1 3.0 0.0 19 54
r 0.78056 0 2 tcp 1040 ------- 1 0.0 3.0 31 49
+ 0.78056 2 3 tcp 1040 ------- 1 0.0 3.0 31 49
r 0.7812 3 2 ack 40 ------- 1 3.0 0.0 18 51
+ 0.7812 2 0 ack 40 ------- 1 3.0 0.0 18 51
- 0.7812 2 0 ack 40 ------- 1 3.0 0.0 18 51
r 0.78304 2 0 ack 40 ------- 1 3.0 0.0 17 48
+ 0.78304 0 2 tcp 1040 ------- 1 0.0 3.0 35 55
+ 0.78304 0 2 tcp 1040 ------- 1 0.0 3.0 36 56
- 0.78304 0 2 tcp 1040 ------- 1 0.0 3.0 35 55
r 0.78472 0 2 tcp 1040 ------- 1 0.0 3.0 32 50
+ 0.78472 2 3 tcp 1040 ------- 1 0.0 3.0 32 50
- 0.78584 2 3 tcp 1040 ------- 1 0.0 3.0 22 35
- 0.7872 0 2 tcp 1040 ------- 1 0.0 3.0 36 56
r 0.78752 2 3 tcp 1040 ------- 1 0.0 3.0 20 32
+ 0.78752 3 2 ack 40 ------- 1 3.0 0.0 20 57
- 0.78752 3 2 ack 40 ------- 1 3.0 0.0 20 57
r 0.78888 0 2 tcp 1040 ------- 1 0.0 3.0 33 52
+ 0.78888 2 3 tcp 1040 ------- 1 0.0 3.0 33 52
r 0.78952 3 2 ack 40 ------- 1 3.0 0.0 19 54
+ 0.78952 2 0 ack 40 ------- 1 3.0 0.0 19 54
- 0.78952 2 0 ack 40 ------- 1 3.0 0.0 19 54
r 0.79136 2 0 ack 40 ------- 1 3.0 0.0 18 51
+ 0.79136 0 2 tcp 1040 ------- 1 0.0 3.0 37 58
+ 0.79136 0 2 tcp 1040 ------- 1 0.0 3.0 38 59
- 0.79136 0 2 tcp 1040 ------- 1 0.0 3.0 37 58
r 0.79304 0 2 tcp 1040 ------- 1 0.0 3.0 34 53
+ 0.79304 2 3 tcp 1040 ------- 1 0.0 3.0 34 53
- 0.79416 2 3 tcp 1040 ------- 1 0.0 3.0 23 37
- 0.79552 0 2 tcp 1040 ------- 1 0.0 3.0 38 59
r 0.79584 2 3 tcp 1040 ------- 1 0.0 3.0 21 34
+ 0.79584 3 2 ack 40 ------- 1 3.0 0.0 21 60
- 0.79584 3 2 ack 40 ------- 1 3.0 0.0 21 60
r 0.7972 0 2 tcp 1040 ------- 1 0.0 3.0 35 55
+ 0.7972 2 3 tcp 1040 ------- 1 0.0 3.0 35 55
r 0.79784 3 2 ack 40 ------- 1 3.0 0.0 20 57
+ 0.79784 2 0 ack 40 ------- 1 3.0 0.0 20 57
- 0.79784 2 0 ack 40 ------- 1 3.0 0.0 20 57
r 0.79968 2 0 ack 40 ------- 1 3.0 0.0 19 54
+ 0.79968 0 2 tcp 1040 ------- 1 0.0 3.0 39 61
- 0.79968 0 2 tcp 1040 ------- 1 0.0 3.0 39 61
r 0.80136 0 2 tcp 1040 ------- 1 0.0 3.0 36 56
+ 0.80136 2 3 tcp 1040 ------- 1 0.0 3.0 36 56
- 0.80248 2 3 tcp 1040 ------- 1 0.0 3.0 24 38
r 0.80416 2 3 tcp 1040 ------- 1 0.0 3.0 22 35
+ 0.80416 3 2 ack 40 ------- 1 3.0 0.0 22 62
- 0.80416 3 2 ack 40 ------- 1 3.0 0.0 22 62
r 0.80552 0 2 tcp 1040 ------- 1 0.0 3.0 37 58
+ 0.80552 2 3 tcp 1040 ------- 1 0.0 3.0 37 58
r 0.80616 3 2 ack 40 ------- 1 3.0 0.0 21 60
+ 0.80616 2 0 ack 40 ------- 1 3.0 0.0 21 60
- 0.80616 2 0 ack 40 ------- 1 3.0 0.0 21 60
r 0.808 2 0 ack 40 ------- 1 3.0 0.0 20 57
+ 0.808 0 2 tcp 1040 ------- 1 0.0 3.0 40 63
- 0.808 0 2 tcp 1040 ------- 1 0.0 3.0 40 63
r 0.80968 0 2 tcp 1040 ------- 1 0.0 3.0 38 59
+ 0.80968 2 3 tcp 1040 ------- 1 0.0 3.0 38 59
- 0.8108 2 3 tcp 1040 ------- 1 0.0 3.0 25 40
r 0.81248 2 3 tcp 1040 ------- 1 0.0 3.0 23 37
+ 0.81248 3 2 ack 40 ------- 1 3.0 0.0 23 64
- 0.81248 3 2 ack 40 ------- 1 3.0 0.0 23 64
r 0.81384 0 2 tcp 1040 ------- 1 0.0 3.0 39 61
+ 0.81384 2 3 tcp 1040 ------- 1 0.0 3.0 39 61
r 0.81448 3 2 ack 40 ------- 1 3.0 0.0 22 62
+ 0.81448 2 0 ack 40 ------- 1 3.0 0.0 22 62
- 0.81448 2 0 ack 40 ------- 1 3.0 0.0 22 62
r 0.81632 2 0 ack 40 ------- 1 3.0 0.0 21 60
+ 0.81632 0 2 tcp 1040 ------- 1 0.0 3.0 41 65
- 0.81632 0 2 tcp 1040 ------- 1 0.0 3.0 41 65
- 0.81912 2 3 tcp 1040 ------- 1 0.0 3.0 26 41
r 0.8208 2 3 tcp 1040 ------- 1 0.0 3.0 24 38
+ 0.8208 3 2 ack 40 ------- 1 3.0 0.0 24 66
- 0.8208 3 2 ack 40 ------- 1 3.0 0.0 24 66
r 0.82216 0 2 tcp 1040 ------- 1 0.0 3.0 40 63
+ 0.82216 2 3 tcp 1040 ------- 1 0.0 3.0 40 63
r 0.8228 3 2 ack 40 ------- 1 3.0 0.0 23 64
+ 0.8228 2 0 ack 40 ------- 1 3.0 0.0 23 64
- 0.8228 2 0 ack 40 ------- 1 3.0 0.0 23 64
r 0.82464 2 0 ack 40 ------- 1 3.0 0.0 22 62
+ 0.82464 0 2 tcp 1040 ------- 1 0.0 3.0 42 67
- 0.82464 0 2 tcp 1040 ------- 1 0.0 3.0 42 67
- 0.82744 2 3 tcp 1040 ------- 1 0.0 3.0 27 43
r 0.82912 2 3 tcp 1040 ------- 1 0.0 3.0 25 40
+ 0.82912 3 2 ack 40 ------- 1 3.0 0.0 25 68
- 0.82912 3 2 ack 40 ------- 1 3.0 0.0 25 68
r 0.83048 0 2 tcp 1040 ------- 1 0.0 3.0 41 65
+ 0.83048 2 3 tcp 1040 ------- 1 0.0 3.0 41 65
r 0.83112 3 2 ack 40 ------- 1 3.0 0.0 24 66
+ 0.83112 2 0 ack 40 ------- 1 3.0 0.0 24 66
- 0.83112 2 0 ack 40 ------- 1 3.0 0.0 24 66
r 0.83296 2 0 ack 40 ------- 1 3.0 0.0 23 64
+ 0.83296 0 2 tcp 1040 ------- 1 0.0 3.0 43 69
- 0.83296 0 2 tcp 1040 ------- 1 0.0 3.0 43 69
- 0.83576 2 3 tcp 1040 ------- 1 0.0 3.0 28 44
r 0.83744 2 3 tcp 1040 ------- 1 0.0 3.0 26 41
+ 0.83744 3 2 ack 40 ------- 1 3.0 0.0 26 70
- 0.83744 3 2 ack 40 ------- 1 3.0 0.0 26 70
r 0.8388 0 2 tcp 1040 ------- 1 0.0 3.0 42 67
+ 0.8388 2 3 tcp 1040 ------- 1 0.0 3.0 42 67
r 0.83944 3 2 ack 40 ------- 1 3.0 0.0 25 68
+ 0.83944 2 0 ack 40 ------- 1 3.0 0.0 25 68
- 0.83944 2 0 ack 40 ------- 1 3.0 0.0 25 68
r 0.84128 2 0 ack 40 ------- 1 3.0 0.0 24 66
+ 0.84128 0 2 tcp 1040 ------- 1 0.0 3.0 44 71
- 0.84128 0 2 tcp 1040 ------- 1 0.0 3.0 44 71
- 0.84408 2 3 tcp 1040 ------- 1 0.0 3.0 29 46
r 0.84576 2 3 tcp 1040 ------- 1 0.0 3.0 27 43
+ 0.84576 3 2 ack 40 ------- 1 3.0 0.0 27 72
- 0.84576 3 2 ack 40 ------- 1 3.0 0.0 27 72
r 0.84712 0 2 tcp 1040 ------- 1 0.0 3.0 43 69
+ 0.84712 2 3 tcp 1040 ------- 1 0.0 3.0 43 69
r 0.84776 3 2 ack 40 ------- 1 3.0 0.0 26 70
+ 0.84776 2 0 ack 40 ------- 1 3.0 0.0 26 70
- 0.84776 2 0 ack 40 ------- 1 3.0 0.0 26 70
r 0.8496 2 0 ack 40 ------- 1 3.0 0.0 25 68
+ 0.8496 0 2 tcp 1040 ------- 1 0.0 3.0 45 73
- 0.8496 0 2 tcp 1040 ------- 1 0.0 3.0 45 73
- 0.8524 2 3 tcp 1040 ------- 1 0.0 3.0 30 47
r 0.85408 2 3 tcp 1040 ------- 1 0.0 3.0 28 44
+ 0.85408 3 2 ack 40 ------- 1 3.0 0.0 28 74
- 0.85408 3 2 ack 40 ------- 1 3.0 0.0 28 74
r 0.85544 0 2 tcp 1040 ------- 1 0.0 3.0 44 71
+ 0.85544 2 3 tcp 1040 ------- 1 0.0 3.0 44 71
r 0.85608 3 2 ack 40 ------- 1 3.0 0.0 27 72
+ 0.85608 2 0 ack 40 ------- 1 3.0 0.0 27 72
- 0.85608 2 0 ack 40 ------- 1 3.0 0.0 27 72
r 0.85792 2 0 ack 40 ------- 1 3.0 0.0 26 70
+ 0.85792 0 2 tcp 1040 ------- 1 0.0 3.0 46 75
- 0.85792 0 2 tcp 1040 ------- 1 0.0 3.0 46 75
- 0.86072 2 3 tcp 1040 ------- 1 0.0 3.0 31 49
r 0.8624 2 3 tcp 1040 ------- 1 0.0 3.0 29 46
+ 0.8624 3 2 ack 40 ------- 1 3.0 0.0 29 76
- 0.8624 3 2 ack 40 ------- 1 3.0 0.0 29 76
r 0.86376 0 2 tcp 1040 ------- 1 0.0 3.0 45 73
+ 0.86376 2 3 tcp 1040 ------- 1 0.0 3.0 45 73
r 0.8644 3 2 ack 40 ------- 1 3.0 0.0 28 74
+ 0.8644 2 0 ack 40 ------- 1 3.0 0.0 28 74
- 0.8644 2 0 ack 40 ------- 1 3.0 0.0 28 74
r 0.86624 2 0 ack 40 ------- 1 3.0 0.0 27 72
+ 0.86624 0 2 tcp 1040 ------- 1 0.0 3.0 47 77
- 0.86624 0 2 tcp 1040 ------- 1 0.0 3.0 47 77
- 0.86904 2 3 tcp 1040 ------- 1 0.0 3.0 32 50
r 0.87072 2 3 tcp 1040 ------- 1 0.0 3.0 30 47
+ 0.87072 3 2 ack 40 ------- 1 3.0 0.0 30 78
- 0.87072 3 2 ack 40 ------- 1 3.0 0.0 30 78
r 0.87208 0 2 tcp 1040 ------- 1 0.0 3.0 46 75
+ 0.87208 2 3 tcp 1040 ------- 1 0.0 3.0 46 75
r 0.87272 3 2 ack 40 ------- 1 3.0 0.0 29 76
+ 0.87272 2 0 ack 40 ------- 1 3.0 0.0 29 76
- 0.87272 2 0 ack 40 ------- 1 3.0 0.0 29 76
r 0.87456 2 0 ack 40 ------- 1 3.0 0.0 28 74
+ 0.87456 0 2 tcp 1040 ------- 1 0.0 3.0 48 79
- 0.87456 0 2 tcp 1040 ------- 1 0.0 3.0 48 79
- 0.87736 2 3 tcp 1040 ------- 1 0.0 3.0 33 52
r 0.87904 2 3 tcp 1040 ------- 1 0.0 3.0 31 49
+ 0.87904 3 2 ack 40 ------- 1 3.0 0.0 31 80
- 0.87904 3 2 ack 40 ------- 1 3.0 0.0 31 80
r 0.8804 0 2 tcp 1040 ------- 1 0.0 3.0 47 77
+ 0.8804 2 3 tcp 1040 ------- 1 0.0 3.0 47 77
r 0.88104 3 2 ack 40 ------- 1 3.0 0.0 30 78
+ 0.88104 2 0 ack 40 ------- 1 3.0 0.0 30 78
- 0.88104 2 0 ack 40 ------- 1 3.0 0.0 30 78
r 0.88288 2 0 ack 40 ------- 1 3.0 0.0 29 76
+ 0.88288 0 2 tcp 1040 ------- 1 0.0 3.0 49 81
- 0.88288 0 2 tcp 1040 ------- 1 0.0 3.0 49 81
- 0.88568 2 3 tcp 1040 ------- 1 0.0 3.0 34 53
r 0.88736 2 3 tcp 1040 ------- 1 0.0 3.0 32 50
+ 0.88736 3 2 ack 40 ------- 1 3.0 0.0 32 82
- 0.88736 3 2 ack 40 ------- 1 3.0 0.0 32 82
r 0.88872 0 2 tcp 1040 ------- 1 0.0 3.0 48 79
+ 0.88872 2 3 tcp 1040 ------- 1 0.0 3.0 48 79
r 0.88936 3 2 ack 40 ------- 1 3.0 0.0 31 80
+ 0.88936 2 0 ack 40 ------- 1 3.0 0.0 31 80
- 0.88936 2 0 ack 40 ------- 1 3.0 0.0 31 80
r 0.8912 2 0 ack 40 ------- 1 3.0 0.0 30 78
+ 0.8912 0 2 tcp 1040 ------- 1 0.0 3.0 50 83
- 0.8912 0 2 tcp 1040 ------- 1 0.0 3.0 50 83
- 0.894 2 3 tcp 1040 ------- 1 0.0 3.0 35 55
r 0.89568 2 3 tcp 1040 ------- 1 0.0 3.0 33 52
+ 0.89568 3 2 ack 40 ------- 1 3.0 0.0 33 84
- 0.89568 3 2 ack 40 ------- 1 3.0 0.0 33 84
r 0.89704 0 2 tcp 1040 ------- 1 0.0 3.0 49 81
+ 0.89704 2 3 tcp 1040 ------- 1 0.0 3.0 49 81
r 0.89768 3 2 ack 40 ------- 1 3.0 0.0 32 82
+ 0.89768 2 0 ack 40 ------- 1 3.0 0.0 32 82
- 0.89768 2 0 ack 40 ------- 1 3.0 0.0 32 82
r 0.89952 2 0 ack 40 ------- 1 3.0 0.0 31 80
+ 0.89952 0 2 tcp 1040 ------- 1 0.0 3.0 51 85
- 0.89952 0 2 tcp 1040 ------- 1 0.0 3.0 51 85
- 0.90232 2 3 tcp 1040 ------- 1 0.0 3.0 36 56
r 0.904 2 3 tcp 1040 ------- 1 0.0 3.0 34 53
+ 0.904 3 2 ack 40 ------- 1 3.0 0.0 34 86
- 0.904 3 2 ack 40 ------- 1 3.0 0.0 34 86
r 0.90536 0 2 tcp 1040 ------- 1 0.0 3.0 50 83
+ 0.90536 2 3 tcp 1040 ------- 1 0.0 3.0 50 83
r 0.906 3 2 ack 40 ------- 1 3.0 0.0 33 84
+ 0.906 2 0 ack 40 ------- 1 3.0 0.0 33 84
- 0.906 2 0 ack 40 ------- 1 3.0 0.0 33 84
r 0.90784 2 0 ack 40 ------- 1 3.0 0.0 32 82
+ 0.90784 0 2 tcp 1040 ------- 1 0.0 3.0 52 87
- 0.90784 0 2 tcp 1040 ------- 1 0.0 3.0 52 87
- 0.91064 2 3 tcp 1040 ------- 1 0.0 3.0 37 58
r 0.91232 2 3 tcp 1040 ------- 1 0.0 3.0 35 55
+ 0.91232 3 2 ack 40 ------- 1 3.0 0.0 35 88
- 0.91232 3 2 ack 40 ------- 1 3.0 0.0 35 88
r 0.91368 0 2 tcp 1040 ------- 1 0.0 3.0 51 85
+ 0.91368 2 3 tcp 1040 ------- 1 0.0 3.0 51 85
r 0.91432 3 2 ack 40 ------- 1 3.0 0.0 34 86
+ 0.91432 2 0 ack 40 ------- 1 3.0 0.0 34 86
- 0.91432 2 0 ack 40 ------- 1 3.0 0.0 34 86
r 0.91616 2 0 ack 40 ------- 1 3.0 0.0 33 84
+ 0.91616 0 2 tcp 1040 ------- 1 0.0 3.0 53 89
- 0.91616 0 2 tcp 1040 ------- 1 0.0 3.0 53 89
- 0.91896 2 3 tcp 1040 ------- 1 0.0 3.0 38 59
r 0.92064 2 3 tcp 1040 ------- 1 0.0 3.0 36 56
+ 0.92064 3 2 ack 40 ------- 1 3.0 0.0 36 90
- 0.92064 3 2 ack 40 ------- 1 3.0 0.0 36 90
r 0.922 0 2 tcp 1040 ------- 1 0.0 3.0 52 87
+ 0.922 2 3 tcp 1040 ------- 1 0.0 3.0 52 87
r 0.92264 3 2 ack 40 ------- 1 3.0 0.0 35 88
+ 0.92264 2 0 ack 40 ------- 1 3.0 0.0 35 88
- 0.92264 2 0 ack 40 ------- 1 3.0 0.0 35 88
r 0.92448 2 0 ack 40 ------- 1 3.0 0.0 34 86
+ 0.92448 0 2 tcp 1040 ------- 1 0.0 3.0 54 91
- 0.92448 0 2 tcp 1040 ------- 1 0.0 3.0 54 91
- 0.92728 2 3 tcp 1040 ------- 1 0.0 3.0 39 61
r 0.92896 2 3 tcp 1040 ------- 1 0.0 3.0 37 58
+ 0.92896 3 2 ack 40 ------- 1 3.0 0.0 37 92
- 0.92896 3 2 ack 40 ------- 1 3.0 0.0 37 92
r 0.93032 0 2 tcp 1040 ------- 1 0.0 3.0 53 89
+ 0.93032 2 3 tcp 1040 ------- 1 0.0 3.0 53 89
r 0.93096 3 2 ack 40 ------- 1 3.0 0.0 36 90
+ 0.93096 2 0 ack 40 ------- 1 3.0 0.0 36 90
- 0.93096 2 0 ack 40 ------- 1 3.0 0.0 36 90
r 0.9328 2 0 ack 40 ------- 1 3.0 0.0 35 88
+ 0.9328 0 2 tcp 1040 ------- 1 0.0 3.0 55 93
- 0.9328 0 2 tcp 1040 ------- 1 0.0 3.0 55 93
- 0.9356 2 3 tcp 1040 ------- 1 0.0 3.0 40 63
r 0.93728 2 3 tcp 1040 ------- 1 0.0 3.0 38 59
+ 0.93728 3 2 ack 40 ------- 1 3.0 0.0 38 94
- 0.93728 3 2 ack 40 ------- 1 3.0 0.0 38 94
r 0.93864 0 2 tcp 1040 ------- 1 0.0 3.0 54 91
+ 0.93864 2 3 tcp 1040 ------- 1 0.0 3.0 54 91
r 0.93928 3 2 ack 40 ------- 1 3.0 0.0 37 92
+ 0.93928 2 0 ack 40 ------- 1 3.0 0.0 37 92
- 0.93928 2 0 ack 40 ------- 1 3.0 0.0 37 92
r 0.94112 2 0 ack 40 ------- 1 3.0 0.0 36 90
+ 0.94112 0 2 tcp 1040 ------- 1 0.0 3.0 56 95
- 0.94112 0 2 tcp 1040 ------- 1 0.0 3.0 56 95
- 0.94392 2 3 tcp 1040 ------- 1 0.0 3.0 41 65
r 0.9456 2 3 tcp 1040 ------- 1 0.0 3.0 39 61
+ 0.9456 3 2 ack 40 ------- 1 3.0 0.0 39 96
- 0.9456 3 2 ack 40 ------- 1 3.0 0.0 39 96
r 0.94696 0 2 tcp 1040 ------- 1 0.0 3.0 55 93
+ 0.94696 2 3 tcp 1040 ------- 1 0.0 3.0 55 93
r 0.9476 3 2 ack 40 ------- 1 3.0 0.0 38 94
+ 0.9476 2 0 ack 40 ------- 1 3.0 0.0 38 94
- 0.9476 2 0 ack 40 ------- 1 3.0 0.0 38 94
r 0.94944 2 0 ack 40 ------- 1 3.0 0.0 37 92
+ 0.94944 0 2 tcp 1040 ------- 1 0.0 3.0 57 97
- 0.94944 0 2 tcp 1040 ------- 1 0.0 3.0 57 97
- 0.95224 2 3 tcp 1040 ------- 1 0.0 3.0 42 67
r 0.95392 2 3 tcp 1040 ------- 1 0.0 3.0 40 63
+ 0.95392 3 2 ack 40 ------- 1 3.0 0.0 40 98
- 0.95392 3 2 ack 40 ------- 1 3.0 0.0 40 98
r 0.95528 0 2 tcp 1040 ------- 1 0.0 3.0 56 95
+ 0.95528 2 3 tcp 1040 ------- 1 0.0 3.0 56 95
r 0.95592 3 2 ack 40 ------- 1 3.0 0.0 39 96
+ 0.95592 2 0 ack 40 ------- 1 3.0 0.0 39 96
- 0.95592 2 0 ack 40 ------- 1 3.0 0.0 39 96
r 0.95776 2 0 ack 40 ------- 1 3.0 0.0 38 94
+ 0.95776 0 2 tcp 1040 ------- 1 0.0 3.0 58 99
- 0.95776 0 2 tcp 1040 ------- 1 0.0 3.0 58 99
- 0.96056 2 3 tcp 1040 ------- 1 0.0 3.0 43 69
r 0.96224 2 3 tcp 1040 ------- 1 0.0 3.0 41 65
+ 0.96224 3 2 ack 40 ------- 1 3.0 0.0 41 100
- 0.96224 3 2 ack 40 ------- 1 3.0 0.0 41 100
r 0.9636 0 2 tcp 1040 ------- 1 0.0 3.0 57 97
+ 0.9636 2 3 tcp 1040 ------- 1 0.0 3.0 57 97
r 0.96424 3 2 ack 40 ------- 1 3.0 0.0 40 98
+ 0.96424 2 0 ack 40 ------- 1 3.0 0.0 40 98
- 0.96424 2 0 ack 40 ------- 1 3.0 0.0 40 98
r 0.96608 2 0 ack 40 ------- 1 3.0 0.0 39 96
+ 0.96608 0 2 tcp 1040 ------- 1 0.0 3.0 59 101
- 0.96608 0 2 tcp 1040 ------- 1 0.0 3.0 59 101
- 0.96888 2 3 tcp 1040 ------- 1 0.0 3.0 44 71
r 0.97056 2 3 tcp 1040 ------- 1 0.0 3.0 42 67
+ 0.97056 3 2 ack 40 ------- 1 3.0 0.0 42 102
- 0.97056 3 2 ack 40 ------- 1 3.0 0.0 42 102
r 0.97192 0 2 tcp 1040 ------- 1 0.0 3.0 58 99
+ 0.97192 2 3 tcp 1040 ------- 1 0.0 3.0 58 99
r 0.97256 3 2 ack 40 ------- 1 3.0 0.0 41 100
+ 0.97256 2 0 ack 40 ------- 1 3.0 0.0 41 100
- 0.97256 2 0 ack 40 ------- 1 3.0 0.0 41 100
r 0.9744 2 0 ack 40 ------- 1 3.0 0.0 40 98
+ 0.9744 0 2 tcp 1040 ------- 1 0.0 3.0 60 103
- 0.9744 0 2 tcp 1040 ------- 1 0.0 3.0 60 103
- 0.9772 2 3 tcp 1040 ------- 1 0.0 3.0 45 73
r 0.97888 2 3 tcp 1040 ------- 1 0.0 3.0 43 69
+ 0.97888 3 2 ack 40 ------- 1 3.0 0.0 43 104
- 0.97888 3 2 ack 40 ------- 1 3.0 0.0 43 104
r 0.98024 0 2 tcp 1040 ------- 1 0.0 3.0 59 101
+ 0.98024 2 3 tcp 1040 ------- 1 0.0 3.0 59 101
r 0.98088 3 2 ack 40 ------- 1 3.0 0.0 42 102
+ 0.98088 2 0 ack 40 ------- 1 3.0 0.0 42 102
- 0.98088 2 0 ack 40 ------- 1 3.0 0.0 42 102
r 0.98272 2 0 ack 40 ------- 1 3.0 0.0 41 100
+ 0.98272 0 2 tcp 1040 ------- 1 0.0 3.0 61 105
- 0.98272 0 2 tcp 1040 ------- 1 0.0 3.0 61 105
- 0.98552 2 3 tcp 1040 ------- 1 0.0 3.0 46 75
r 0.9872 2 3 tcp 1040 ------- 1 0.0 3.0 44 71
+ 0.9872 3 2 ack 40 ------- 1 3.0 0.0 44 106
- 0.9872 3 2 ack 40 ------- 1 3.0 0.0 44 106
r 0.98856 0 2 tcp 1040 ------- 1 0.0 3.0 60 103
+ 0.98856 2 3 tcp 1040 ------- 1 0.0 3.0 60 103
r 0.9892 3 2 ack 40 ------- 1 3.0 0.0 43 104
+ 0.9892 2 0 ack 40 ------- 1 3.0 0.0 43 104
- 0.9892 2 0 ack 40 ------- 1 3.0 0.0 43 104
r 0.99104 2 0 ack 40 ------- 1 3.0 0.0 42 102
+ 0.99104 0 2 tcp 1040 ------- 1 0.0 3.0 62 107
- 0.99104 0 2 tcp 1040 ------- 1 0.0 3.0 62 107
- 0.99384 2 3 tcp 1040 ------- 1 0.0 3.0 47 77
r 0.99552 2 3 tcp 1040 ------- 1 0.0 3.0 45 73
+ 0.99552 3 2 ack 40 ------- 1 3.0 0.0 45 108
- 0.99552 3 2 ack 40 ------- 1 3.0 0.0 45 108
r 0.99688 0 2 tcp 1040 ------- 1 0.0 3.0 61 105
+ 0.99688 2 3 tcp 1040 ------- 1 0.0 3.0 61 105
r 0.99752 3 2 ack 40 ------- 1 3.0 0.0 44 106
+ 0.99752 2 0 ack 40 ------- 1 3.0 0.0 44 106
- 0.99752 2 0 ack 40 ------- 1 3.0 0.0 44 106
r 0.99936 2 0 ack 40 ------- 1 3.0 0.0 43 104
+ 0.99936 0 2 tcp 1040 ------- 1 0.0 3.0 63 109
- 0.99936 0 2 tcp 1040 ------- 1 0.0 3.0 63 109
- 1.00216 2 3 tcp 1040 ------- 1 0.0 3.0 48 79
r 1.00384 2 3 tcp 1040 ------- 1 0.0 3.0 46 75
+ 1.00384 3 2 ack 40 ------- 1 3.0 0.0 46 110
- 1.00384 3 2 ack 40 ------- 1 3.0 0.0 46 110
r 1.0052 0 2 tcp 1040 ------- 1 0.0 3.0 62 107
+ 1.0052 2 3 tcp 1040 ------- 1 0.0 3.0 62 107
r 1.00584 3 2 ack 40 ------- 1 3.0 0.0 45 108
+ 1.00584 2 0 ack 40 ------- 1 3.0 0.0 45 108
- 1.00584 2 0 ack 40 ------- 1 3.0 0.0 45 108
r 1.00768 2 0 ack 40 ------- 1 3.0 0.0 44 106
+ 1.00768 0 2 tcp 1040 ------- 1 0.0 3.0 64 111
- 1.00768 0 2 tcp 1040 ------- 1 0.0 3.0 64 111
- 1.01048 2 3 tcp 1040 ------- 1 0.0 3.0 49 81
r 1.01216 2 3 tcp 1040 ------- 1 0.0 3.0 47 77
+ 1.01216 3 2 ack 40 ------- 1 3.0 0.0 47 112
- 1.01216 3 2 ack 40 ------- 1 3.0 0.0 47 112
r 1.01352 0 2 tcp 1040 ------- 1 0.0 3.0 63 109
+ 1.01352 2 3 tcp 1040 ------- 1 0.0 3.0 63 109
r 1.01416 3 2 ack 40 ------- 1 3.0 0.0 46 110
+ 1.01416 2 0 ack 40 ------- 1 3.0 0.0 46 110
- 1.01416 2 0 ack 40 ------- 1 3.0 0.0 46 110
r 1.016 2 0 ack 40 ------- 1 3.0 0.0 45 108
+ 1.016 0 2 tcp 1040 ------- 1 0.0 3.0 65 113
- 1.016 0 2 tcp 1040 ------- 1 0.0 3.0 65 113
- 1.0188 2 3 tcp 1040 ------- 1 0.0 3.0 50 83
r 1.02048 2 3 tcp 1040 ------- 1 0.0 3.0 48 79
+ 1.02048 3 2 ack 40 ------- 1 3.0 0.0 48 114
- 1.02048 3 2 ack 40 ------- 1 3.0 0.0 48 114
r 1.02184 0 2 tcp 1040 ------- 1 0.0 3.0 64 111
+ 1.02184 2 3 tcp 1040 ------- 1 0.0 3.0 64 111
r 1.02248 3 2 ack 40 ------- 1 3.0 0.0 47 112
+ 1.02248 2 0 ack 40 ------- 1 3.0 0.0 47 112
- 1.02248 2 0 ack 40 ------- 1 3.0 0.0 47 112
r 1.02432 2 0 ack 40 ------- 1 3.0 0.0 46 110
+ 1.02432 0 2 tcp 1040 ------- 1 0.0 3.0 66 115
- 1.02432 0 2 tcp 1040 ------- 1 0.0 3.0 66 115
- 1.02712 2 3 tcp 1040 ------- 1 0.0 3.0 51 85
r 1.0288 2 3 tcp 1040 ------- 1 0.0 3.0 49 81
+ 1.0288 3 2 ack 40 ------- 1 3.0 0.0 49 116