+ 0.1 1 0 ping 64 ------- 0 1.0 4.0 -1 0
- 0.1 1 0 ping 64 ------- 0 1.0 4.0 -1 0
r 0.112512 1 0 ping 64 ------- 0 1.0 4.0 -1 0
+ 0.112512 0 4 ping 64 ------- 0 1.0 4.0 -1 0
- 0.112512 0 4 ping 64 ------- 0 1.0 4.0 -1 0
r 0.123024 0 4 ping 64 ------- 0 1.0 4.0 -1 0
+ 0.123024 4 0 ping 64 ------- 0 4.0 1.0 -1 1
- 0.123024 4 0 ping 64 ------- 0 4.0 1.0 -1 1
r 0.133536 4 0 ping 64 ------- 0 4.0 1.0 -1 1
+ 0.133536 0 1 ping 64 ------- 0 4.0 1.0 -1 1
- 0.133536 0 1 ping 64 ------- 0 4.0 1.0 -1 1
r 0.146048 0 1 ping 64 ------- 0 4.0 1.0 -1 1
+ 0.3 2 0 ping 64 ------- 0 2.0 5.0 -1 2
- 0.3 2 0 ping 64 ------- 0 2.0 5.0 -1 2
r 0.310512 2 0 ping 64 ------- 0 2.0 5.0 -1 2
+ 0.310512 0 5 ping 64 ------- 0 2.0 5.0 -1 2
- 0.310512 0 5 ping 64 ------- 0 2.0 5.0 -1 2
r 0.321024 0 5 ping 64 ------- 0 2.0 5.0 -1 2
+ 0.321024 5 0 ping 64 ------- 0 5.0 2.0 -1 3
- 0.321024 5 0 ping 64 ------- 0 5.0 2.0 -1 3
r 0.331536 5 0 ping 64 ------- 0 5.0 2.0 -1 3
+ 0.331536 0 2 ping 64 ------- 0 5.0 2.0 -1 3
- 0.331536 0 2 ping 64 ------- 0 5.0 2.0 -1 3
r 0.342048 0 2 ping 64 ------- 0 5.0 2.0 -1 3
+ 0.5 3 0 ping 64 ------- 0 3.0 6.0 -1 4
- 0.5 3 0 ping 64 ------- 0 3.0 6.0 -1 4
r 0.510512 3 0 ping 64 ------- 0 3.0 6.0 -1 4
+ 0.510512 0 6 ping 64 ------- 0 3.0 6.0 -1 4
- 0.510512 0 6 ping 64 ------- 0 3.0 6.0 -1 4
r 0.522024 0 6 ping 64 ------- 0 3.0 6.0 -1 4
+ 0.522024 6 0 ping 64 ------- 0 6.0 3.0 -1 5
- 0.522024 6 0 ping 64 ------- 0 6.0 3.0 -1 5
r 0.533536 6 0 ping 64 ------- 0 6.0 3.0 -1 5
+ 0.533536 0 3 ping 64 ------- 0 6.0 3.0 -1 5
- 0.533536 0 3 ping 64 ------- 0 6.0 3.0 -1 5
r 0.544048 0 3 ping 64 ------- 0 6.0 3.0 -1 5
+ 1 4 0 ping 64 ------- 0 4.0 1.0 -1 6
- 1 4 0 ping 64 ------- 0 4.0 1.0 -1 6
r 1.010512 4 0 ping 64 ------- 0 4.0 1.0 -1 6
+ 1.010512 0 1 ping 64 ------- 0 4.0 1.0 -1 6
- 1.010512 0 1 ping 64 ------- 0 4.0 1.0 -1 6
r 1.023024 0 1 ping 64 ------- 0 4.0 1.0 -1 6
+ 1.023024 1 0 ping 64 ------- 0 1.0 4.0 -1 7
- 1.023024 1 0 ping 64 ------- 0 1.0 4.0 -1 7
r 1.035536 1 0 ping 64 ------- 0 1.0 4.0 -1 7
+ 1.035536 0 4 ping 64 ------- 0 1.0 4.0 -1 7
- 1.035536 0 4 ping 64 ------- 0 1.0 4.0 -1 7
r 1.046048 0 4 ping 64 ------- 0 1.0 4.0 -1 7
+ 1.2 5 0 ping 64 ------- 0 5.0 2.0 -1 8
- 1.2 5 0 ping 64 ------- 0 5.0 2.0 -1 8
r 1.210512 5 0 ping 64 ------- 0 5.0 2.0 -1 8
+ 1.210512 0 2 ping 64 ------- 0 5.0 2.0 -1 8
- 1.210512 0 2 ping 64 ------- 0 5.0 2.0 -1 8
r 1.221024 0 2 ping 64 ------- 0 5.0 2.0 -1 8
+ 1.221024 2 0 ping 64 ------- 0 2.0 5.0 -1 9
- 1.221024 2 0 ping 64 ------- 0 2.0 5.0 -1 9
r 1.231536 2 0 ping 64 ------- 0 2.0 5.0 -1 9
+ 1.231536 0 5 ping 64 ------- 0 2.0 5.0 -1 9
- 1.231536 0 5 ping 64 ------- 0 2.0 5.0 -1 9
r 1.242048 0 5 ping 64 ------- 0 2.0 5.0 -1 9
+ 1.4 6 0 ping 64 ------- 0 6.0 3.0 -1 10
- 1.4 6 0 ping 64 ------- 0 6.0 3.0 -1 10
r 1.411512 6 0 ping 64 ------- 0 6.0 3.0 -1 10
+ 1.411512 0 3 ping 64 ------- 0 6.0 3.0 -1 10
- 1.411512 0 3 ping 64 ------- 0 6.0 3.0 -1 10
r 1.422024 0 3 ping 64 ------- 0 6.0 3.0 -1 10
+ 1.422024 3 0 ping 64 ------- 0 3.0 6.0 -1 11
- 1.422024 3 0 ping 64 ------- 0 3.0 6.0 -1 11
r 1.432536 3 0 ping 64 ------- 0 3.0 6.0 -1 11
+ 1.432536 0 6 ping 64 ------- 0 3.0 6.0 -1 11
- 1.432536 0 6 ping 64 ------- 0 3.0 6.0 -1 11
r 1.444048 0 6 ping 64 ------- 0 3.0 6.0 -1 11
