n -t 0 -s 0 -S DLABEL -l "TCP" -L ""
n -t 0 -s 1 -S DLABEL -l "UDP" -L ""
n -t 0 -s 3 -S DLABEL -l "NULL-TCPSINK" -L ""
V -t * -v 1.0a5 -a 0
A -t * -n 1 -p 0 -o 0x7fffffff -c 30 -a 1
A -t * -h 1 -m 1073741823 -s 0
c -t * -i 1 -n blue
n -t * -a 0 -s 0 -S UP -v circle -c red -i red
n -t * -a 1 -s 1 -S UP -v circle -c blue -i blue
n -t * -a 2 -s 2 -S UP -v circle -c purple -i purple
n -t * -a 3 -s 3 -S UP -v circle -c orange -i orange
l -t * -s 0 -d 2 -S UP -r 1000000 -D 0.01 -c black
l -t * -s 1 -d 2 -S UP -r 1000000 -D 0.01 -c black
l -t * -s 2 -d 3 -S UP -r 1000000 -D 0.01 -c black
+ -t 0.1 -s 0 -d 2 -p tcp -e 40 -c 1 -i 0 -a 1 -x {0.0 3.0 0 ------- null}
- -t 0.1 -s 0 -d 2 -p tcp -e 40 -c 1 -i 0 -a 1 -x {0.0 3.0 0 ------- null}
h -t 0.1 -s 0 -d 2 -p tcp -e 40 -c 1 -i 0 -a 1 -x {0.0 3.0 -1 ------- null}
r -t 0.11032 -s 0 -d 2 -p tcp -e 40 -c 1 -i 0 -a 1 -x {0.0 3.0 0 ------- null}
+ -t 0.11032 -s 2 -d 3 -p tcp -e 40 -c 1 -i 0 -a 1 -x {0.0 3.0 0 ------- null}
- -t 0.11032 -s 2 -d 3 -p tcp -e 40 -c 1 -i 0 -a 1 -x {0.0 3.0 0 ------- null}
h -t 0.11032 -s 2 -d 3 -p tcp -e 40 -c 1 -i 0 -a 1 -x {0.0 3.0 -1 ------- null}
r -t 0.12064 -s 2 -d 3 -p tcp -e 40 -c 1 -i 0 -a 1 -x {0.0 3.0 0 ------- null}
+ -t 0.12064 -s 3 -d 2 -p ack -e 40 -c 1 -i 1 -a 1 -x {3.0 0.0 0 ------- null}
- -t 0.12064 -s 3 -d 2 -p ack -e 40 -c 1 -i 1 -a 1 -x {3.0 0.0 0 ------- null}
h -t 0.12064 -s 3 -d 2 -p ack -e 40 -c 1 -i 1 -a 1 -x {3.0 0.0 -1 ------- null}
r -t 0.13096 -s 3 -d 2 -p ack -e 40 -c 1 -i 1 -a 1 -x {3.0 0.0 0 ------- null}
+ -t 0.13096 -s 2 -d 0 -p ack -e 40 -c 1 -i 1 -a 1 -x {3.0 0.0 0 ------- null}
- -t 0.13096 -s 2 -d 0 -p ack -e 40 -c 1 -i 1 -a 1 -x {3.0 0.0 0 ------- null}
h -t 0.13096 -s 2 -d 0 -p ack -e 40 -c 1 -i 1 -a 1 -x {3.0 0.0 -1 ------- null}
r -t 0.14128 -s 2 -d 0 -p ack -e 40 -c 1 -i 1 -a 1 -x {3.0 0.0 0 ------- null}
+ -t 0.14128 -s 0 -d 2 -p tcp -e 1040 -c 1 -i 2 -a 1 -x {0.0 3.0 1 ------- null}
- -t 0.14128 -s 0 -d 2 -p tcp -e 1040 -c 1 -i 2 -a 1 -x {0.0 3.0 1 ------- null}
h -t 0.14128 -s 0 -d 2 -p tcp -e 1040 -c 1 -i 2 -a 1 -x {0.0 3.0 -1 ------- null}
+ -t 0.14128 -s 0 -d 2 -p tcp -e 1040 -c 1 -i 3 -a 1 -x {0.0 3.0 2 ------- null}
- -t 0.1496 -s 0 -d 2 -p tcp -e 1040 -c 1 -i 3 -a 1 -x {0.0 3.0 2 ------- null}
h -t 0.1496 -s 0 -d 2 -p tcp -e 1040 -c 1 -i 3 -a 1 -x {0.0 3.0 -1 ------- null}
r -t 0.1596 -s 0 -d 2 -p tcp -e 1040 -c 1 -i 2 -a 1 -x {0.0 3.0 1 ------- null}
+ -t 0.1596 -s 2 -d 3 -p tcp -e 1040 -c 1 -i 2 -a 1 -x {0.0 3.0 1 ------- null}
- -t 0.1596 -s 2 -d 3 -p tcp -e 1040 -c 1 -i 2 -a 1 -x {0.0 3.0 1 ------- null}
h -t 0.1596 -s 2 -d 3 -p tcp -e 1040 -c 1 -i 2 -a 1 -x {0.0 3.0 -1 ------- null}
r -t 0.16792 -s 0 -d 2 -p tcp -e 1040 -c 1 -i 3 -a 1 -x {0.0 3.0 2 ------- null}
+ -t 0.16792 -s 2 -d 3 -p tcp -e 1040 -c 1 -i 3 -a 1 -x {0.0 3.0 2 ------- null}
- -t 0.16792 -s 2 -d 3 -p tcp -e 1040 -c 1 -i 3 -a 1 -x {0.0 3.0 2 ------- null}
h -t 0.16792 -s 2 -d 3 -p tcp -e 1040 -c 1 -i 3 -a 1 -x {0.0 3.0 -1 ------- null}
r -t 0.17792 -s 2 -d 3 -p tcp -e 1040 -c 1 -i 2 -a 1 -x {0.0 3.0 1 ------- null}
+ -t 0.17792 -s 3 -d 2 -p ack -e 40 -c 1 -i 4 -a 1 -x {3.0 0.0 1 ------- null}
- -t 0.17792 -s 3 -d 2 -p ack -e 40 -c 1 -i 4 -a 1 -x {3.0 0.0 1 ------- null}
h -t 0.17792 -s 3 -d 2 -p ack -e 40 -c 1 -i 4 -a 1 -x {3.0 0.0 -1 ------- null}
r -t 0.18624 -s 2 -d 3 -p tcp -e 1040 -c 1 -i 3 -a 1 -x {0.0 3.0 2 ------- null}
+ -t 0.18624 -s 3 -d 2 -p ack -e 40 -c 1 -i 5 -a 1 -x {3.0 0.0 2 ------- null}
- -t 0.18624 -s 3 -d 2 -p ack -e 40 -c 1 -i 5 -a 1 -x {3.0 0.0 2 ------- null}
h -t 0.18624 -s 3 -d 2 -p ack -e 40 -c 1 -i 5 -a 1 -x {3.0 0.0 -1 ------- null}
r -t 0.18824 -s 3 -d 2 -p ack -e 40 -c 1 -i 4 -a 1 -x {3.0 0.0 1 ------- null}
+ -t 0.18824 -s 2 -d 0 -p ack -e 40 -c 1 -i 4 -a 1 -x {3.0 0.0 1 ------- null}
- -t 0.18824 -s 2 -d 0 -p ack -e 40 -c 1 -i 4 -a 1 -x {3.0 0.0 1 ------- null}
h -t 0.18824 -s 2 -d 0 -p ack -e 40 -c 1 -i 4 -a 1 -x {3.0 0.0 -1 ------- null}
r -t 0.19656 -s 3 -d 2 -p ack -e 40 -c 1 -i 5 -a 1 -x {3.0 0.0 2 ------- null}
+ -t 0.19656 -s 2 -d 0 -p ack -e 40 -c 1 -i 5 -a 1 -x {3.0 0.0 2 ------- null}
- -t 0.19656 -s 2 -d 0 -p ack -e 40 -c 1 -i 5 -a 1 -x {3.0 0.0 2 ------- null}
h -t 0.19656 -s 2 -d 0 -p ack -e 40 -c 1 -i 5 -a 1 -x {3.0 0.0 -1 ------- null}
r -t 0.19856 -s 2 -d 0 -p ack -e 40 -c 1 -i 4 -a 1 -x {3.0 0.0 1 ------- null}
+ -t 0.19856 -s 0 -d 2 -p tcp -e 1040 -c 1 -i 6 -a 1 -x {0.0 3.0 3 ------- null}
- -t 0.19856 -s 0 -d 2 -p tcp -e 1040 -c 1 -i 6 -a 1 -x {0.0 3.0 3 ------- null}
h -t 0.19856 -s 0 -d 2 -p tcp -e 1040 -c 1 -i 6 -a 1 -x {0.0 3.0 -1 ------- null}
+ -t 0.19856 -s 0 -d 2 -p tcp -e 1040 -c 1 -i 7 -a 1 -x {0.0 3.0 4 ------- null}
+ -t 0.2 -s 1 -d 2 -p cbr -e 500 -c 0 -i 8 -a 0 -x {1.0 3.1 0 ------- null}
- -t 0.2 -s 1 -d 2 -p cbr -e 500 -c 0 -i 8 -a 0 -x {1.0 3.1 0 ------- null}
h -t 0.2 -s 1 -d 2 -p cbr -e 500 -c 0 -i 8 -a 0 -x {1.0 3.1 -1 ------- null}
+ -t 0.205 -s 1 -d 2 -p cbr -e 500 -c 0 -i 9 -a 0 -x {1.0 3.1 1 ------- null}
- -t 0.205 -s 1 -d 2 -p cbr -e 500 -c 0 -i 9 -a 0 -x {1.0 3.1 1 ------- null}
h -t 0.205 -s 1 -d 2 -p cbr -e 500 -c 0 -i 9 -a 0 -x {1.0 3.1 -1 ------- null}
r -t 0.20688 -s 2 -d 0 -p ack -e 40 -c 1 -i 5 -a 1 -x {3.0 0.0 2 ------- null}
+ -t 0.20688 -s 0 -d 2 -p tcp -e 1040 -c 1 -i 10 -a 1 -x {0.0 3.0 5 ------- null}
+ -t 0.20688 -s 0 -d 2 -p tcp -e 1040 -c 1 -i 11 -a 1 -x {0.0 3.0 6 ------- null}
- -t 0.20688 -s 0 -d 2 -p tcp -e 1040 -c 1 -i 7 -a 1 -x {0.0 3.0 4 ------- null}
h -t 0.20688 -s 0 -d 2 -p tcp -e 1040 -c 1 -i 7 -a 1 -x {0.0 3.0 -1 ------- null}
+ -t 0.21 -s 1 -d 2 -p cbr -e 500 -c 0 -i 12 -a 0 -x {1.0 3.1 2 ------- null}
- -t 0.21 -s 1 -d 2 -p cbr -e 500 -c 0 -i 12 -a 0 -x {1.0 3.1 2 ------- null}
h -t 0.21 -s 1 -d 2 -p cbr -e 500 -c 0 -i 12 -a 0 -x {1.0 3.1 -1 ------- null}
r -t 0.214 -s 1 -d 2 -p cbr -e 500 -c 0 -i 8 -a 0 -x {1.0 3.1 0 ------- null}
+ -t 0.214 -s 2 -d 3 -p cbr -e 500 -c 0 -i 8 -a 0 -x {1.0 3.1 0 ------- null}
- -t 0.214 -s 2 -d 3 -p cbr -e 500 -c 0 -i 8 -a 0 -x {1.0 3.1 0 ------- null}
h -t 0.214 -s 2 -d 3 -p cbr -e 500 -c 0 -i 8 -a 0 -x {1.0 3.1 -1 ------- null}
+ -t 0.215 -s 1 -d 2 -p cbr -e 500 -c 0 -i 13 -a 0 -x {1.0 3.1 3 ------- null}
- -t 0.215 -s 1 -d 2 -p cbr -e 500 -c 0 -i 13 -a 0 -x {1.0 3.1 3 ------- null}
h -t 0.215 -s 1 -d 2 -p cbr -e 500 -c 0 -i 13 -a 0 -x {1.0 3.1 -1 ------- null}
- -t 0.2152 -s 0 -d 2 -p tcp -e 1040 -c 1 -i 10 -a 1 -x {0.0 3.0 5 ------- null}
h -t 0.2152 -s 0 -d 2 -p tcp -e 1040 -c 1 -i 10 -a 1 -x {0.0 3.0 -1 ------- null}
r -t 0.21688 -s 0 -d 2 -p tcp -e 1040 -c 1 -i 6 -a 1 -x {0.0 3.0 3 ------- null}
+ -t 0.21688 -s 2 -d 3 -p tcp -e 1040 -c 1 -i 6 -a 1 -x {0.0 3.0 3 ------- null}
- -t 0.218 -s 2 -d 3 -p tcp -e 1040 -c 1 -i 6 -a 1 -x {0.0 3.0 3 ------- null}
h -t 0.218 -s 2 -d 3 -p tcp -e 1040 -c 1 -i 6 -a 1 -x {0.0 3.0 -1 ------- null}
r -t 0.219 -s 1 -d 2 -p cbr -e 500 -c 0 -i 9 -a 0 -x {1.0 3.1 1 ------- null}
+ -t 0.219 -s 2 -d 3 -p cbr -e 500 -c 0 -i 9 -a 0 -x {1.0 3.1 1 ------- null}
+ -t 0.22 -s 1 -d 2 -p cbr -e 500 -c 0 -i 14 -a 0 -x {1.0 3.1 4 ------- null}
- -t 0.22 -s 1 -d 2 -p cbr -e 500 -c 0 -i 14 -a 0 -x {1.0 3.1 4 ------- null}
h -t 0.22 -s 1 -d 2 -p cbr -e 500 -c 0 -i 14 -a 0 -x {1.0 3.1 -1 ------- null}
- -t 0.22352 -s 0 -d 2 -p tcp -e 1040 -c 1 -i 11 -a 1 -x {0.0 3.0 6 ------- null}
h -t 0.22352 -s 0 -d 2 -p tcp -e 1040 -c 1 -i 11 -a 1 -x {0.0 3.0 -1 ------- null}
r -t 0.224 -s 1 -d 2 -p cbr -e 500 -c 0 -i 12 -a 0 -x {1.0 3.1 2 ------- null}
+ -t 0.224 -s 2 -d 3 -p cbr -e 500 -c 0 -i 12 -a 0 -x {1.0 3.1 2 ------- null}
+ -t 0.225 -s 1 -d 2 -p cbr -e 500 -c 0 -i 15 -a 0 -x {1.0 3.1 5 ------- null}
- -t 0.225 -s 1 -d 2 -p cbr -e 500 -c 0 -i 15 -a 0 -x {1.0 3.1 5 ------- null}
h -t 0.225 -s 1 -d 2 -p cbr -e 500 -c 0 -i 15 -a 0 -x {1.0 3.1 -1 ------- null}
r -t 0.2252 -s 0 -d 2 -p tcp -e 1040 -c 1 -i 7 -a 1 -x {0.0 3.0 4 ------- null}
+ -t 0.2252 -s 2 -d 3 -p tcp -e 1040 -c 1 -i 7 -a 1 -x {0.0 3.0 4 ------- null}
- -t 0.22632 -s 2 -d 3 -p cbr -e 500 -c 0 -i 9 -a 0 -x {1.0 3.1 1 ------- null}
h -t 0.22632 -s 2 -d 3 -p cbr -e 500 -c 0 -i 9 -a 0 -x {1.0 3.1 -1 ------- null}
r -t 0.228 -s 2 -d 3 -p cbr -e 500 -c 0 -i 8 -a 0 -x {1.0 3.1 0 ------- null}
r -t 0.229 -s 1 -d 2 -p cbr -e 500 -c 0 -i 13 -a 0 -x {1.0 3.1 3 ------- null}
+ -t 0.229 -s 2 -d 3 -p cbr -e 500 -c 0 -i 13 -a 0 -x {1.0 3.1 3 ------- null}
+ -t 0.23 -s 1 -d 2 -p cbr -e 500 -c 0 -i 16 -a 0 -x {1.0 3.1 6 ------- null}
- -t 0.23 -s 1 -d 2 -p cbr -e 500 -c 0 -i 16 -a 0 -x {1.0 3.1 6 ------- null}
h -t 0.23 -s 1 -d 2 -p cbr -e 500 -c 0 -i 16 -a 0 -x {1.0 3.1 -1 ------- null}
- -t 0.23032 -s 2 -d 3 -p cbr -e 500 -c 0 -i 12 -a 0 -x {1.0 3.1 2 ------- null}
h -t 0.23032 -s 2 -d 3 -p cbr -e 500 -c 0 -i 12 -a 0 -x {1.0 3.1 -1 ------- null}
r -t 0.23352 -s 0 -d 2 -p tcp -e 1040 -c 1 -i 10 -a 1 -x {0.0 3.0 5 ------- null}
+ -t 0.23352 -s 2 -d 3 -p tcp -e 1040 -c 1 -i 10 -a 1 -x {0.0 3.0 5 ------- null}
r -t 0.234 -s 1 -d 2 -p cbr -e 500 -c 0 -i 14 -a 0 -x {1.0 3.1 4 ------- null}
+ -t 0.234 -s 2 -d 3 -p cbr -e 500 -c 0 -i 14 -a 0 -x {1.0 3.1 4 ------- null}
- -t 0.23432 -s 2 -d 3 -p tcp -e 1040 -c 1 -i 7 -a 1 -x {0.0 3.0 4 ------- null}
h -t 0.23432 -s 2 -d 3 -p tcp -e 1040 -c 1 -i 7 -a 1 -x {0.0 3.0 -1 ------- null}
+ -t 0.235 -s 1 -d 2 -p cbr -e 500 -c 0 -i 17 -a 0 -x {1.0 3.1 7 ------- null}
- -t 0.235 -s 1 -d 2 -p cbr -e 500 -c 0 -i 17 -a 0 -x {1.0 3.1 7 ------- null}
h -t 0.235 -s 1 -d 2 -p cbr -e 500 -c 0 -i 17 -a 0 -x {1.0 3.1 -1 ------- null}
r -t 0.23632 -s 2 -d 3 -p tcp -e 1040 -c 1 -i 6 -a 1 -x {0.0 3.0 3 ------- null}
+ -t 0.23632 -s 3 -d 2 -p ack -e 40 -c 1 -i 18 -a 1 -x {3.0 0.0 3 ------- null}
- -t 0.23632 -s 3 -d 2 -p ack -e 40 -c 1 -i 18 -a 1 -x {3.0 0.0 3 ------- null}
h -t 0.23632 -s 3 -d 2 -p ack -e 40 -c 1 -i 18 -a 1 -x {3.0 0.0 -1 ------- null}
r -t 0.239 -s 1 -d 2 -p cbr -e 500 -c 0 -i 15 -a 0 -x {1.0 3.1 5 ------- null}
+ -t 0.239 -s 2 -d 3 -p cbr -e 500 -c 0 -i 15 -a 0 -x {1.0 3.1 5 ------- null}
+ -t 0.24 -s 1 -d 2 -p cbr -e 500 -c 0 -i 19 -a 0 -x {1.0 3.1 8 ------- null}
- -t 0.24 -s 1 -d 2 -p cbr -e 500 -c 0 -i 19 -a 0 -x {1.0 3.1 8 ------- null}
h -t 0.24 -s 1 -d 2 -p cbr -e 500 -c 0 -i 19 -a 0 -x {1.0 3.1 -1 ------- null}
r -t 0.24032 -s 2 -d 3 -p cbr -e 500 -c 0 -i 9 -a 0 -x {1.0 3.1 1 ------- null}
r -t 0.24184 -s 0 -d 2 -p tcp -e 1040 -c 1 -i 11 -a 1 -x {0.0 3.0 6 ------- null}
+ -t 0.24184 -s 2 -d 3 -p tcp -e 1040 -c 1 -i 11 -a 1 -x {0.0 3.0 6 ------- null}
- -t 0.24264 -s 2 -d 3 -p cbr -e 500 -c 0 -i 13 -a 0 -x {1.0 3.1 3 ------- null}
h -t 0.24264 -s 2 -d 3 -p cbr -e 500 -c 0 -i 13 -a 0 -x {1.0 3.1 -1 ------- null}
r -t 0.244 -s 1 -d 2 -p cbr -e 500 -c 0 -i 16 -a 0 -x {1.0 3.1 6 ------- null}
+ -t 0.244 -s 2 -d 3 -p cbr -e 500 -c 0 -i 16 -a 0 -x {1.0 3.1 6 ------- null}
r -t 0.24432 -s 2 -d 3 -p cbr -e 500 -c 0 -i 12 -a 0 -x {1.0 3.1 2 ------- null}
+ -t 0.245 -s 1 -d 2 -p cbr -e 500 -c 0 -i 20 -a 0 -x {1.0 3.1 9 ------- null}
- -t 0.245 -s 1 -d 2 -p cbr -e 500 -c 0 -i 20 -a 0 -x {1.0 3.1 9 ------- null}
h -t 0.245 -s 1 -d 2 -p cbr -e 500 -c 0 -i 20 -a 0 -x {1.0 3.1 -1 ------- null}
r -t 0.24664 -s 3 -d 2 -p ack -e 40 -c 1 -i 18 -a 1 -x {3.0 0.0 3 ------- null}
+ -t 0.24664 -s 2 -d 0 -p ack -e 40 -c 1 -i 18 -a 1 -x {3.0 0.0 3 ------- null}
- -t 0.24664 -s 2 -d 0 -p ack -e 40 -c 1 -i 18 -a 1 -x {3.0 0.0 3 ------- null}
h -t 0.24664 -s 2 -d 0 -p ack -e 40 -c 1 -i 18 -a 1 -x {3.0 0.0 -1 ------- null}
- -t 0.24664 -s 2 -d 3 -p tcp -e 1040 -c 1 -i 10 -a 1 -x {0.0 3.0 5 ------- null}
h -t 0.24664 -s 2 -d 3 -p tcp -e 1040 -c 1 -i 10 -a 1 -x {0.0 3.0 -1 ------- null}
r -t 0.249 -s 1 -d 2 -p cbr -e 500 -c 0 -i 17 -a 0 -x {1.0 3.1 7 ------- null}
+ -t 0.249 -s 2 -d 3 -p cbr -e 500 -c 0 -i 17 -a 0 -x {1.0 3.1 7 ------- null}
+ -t 0.25 -s 1 -d 2 -p cbr -e 500 -c 0 -i 21 -a 0 -x {1.0 3.1 10 ------- null}
- -t 0.25 -s 1 -d 2 -p cbr -e 500 -c 0 -i 21 -a 0 -x {1.0 3.1 10 ------- null}
h -t 0.25 -s 1 -d 2 -p cbr -e 500 -c 0 -i 21 -a 0 -x {1.0 3.1 -1 ------- null}
r -t 0.25264 -s 2 -d 3 -p tcp -e 1040 -c 1 -i 7 -a 1 -x {0.0 3.0 4 ------- null}
+ -t 0.25264 -s 3 -d 2 -p ack -e 40 -c 1 -i 22 -a 1 -x {3.0 0.0 4 ------- null}
- -t 0.25264 -s 3 -d 2 -p ack -e 40 -c 1 -i 22 -a 1 -x {3.0 0.0 4 ------- null}
h -t 0.25264 -s 3 -d 2 -p ack -e 40 -c 1 -i 22 -a 1 -x {3.0 0.0 -1 ------- null}
r -t 0.254 -s 1 -d 2 -p cbr -e 500 -c 0 -i 19 -a 0 -x {1.0 3.1 8 ------- null}
+ -t 0.254 -s 2 -d 3 -p cbr -e 500 -c 0 -i 19 -a 0 -x {1.0 3.1 8 ------- null}
- -t 0.25496 -s 2 -d 3 -p cbr -e 500 -c 0 -i 14 -a 0 -x {1.0 3.1 4 ------- null}
h -t 0.25496 -s 2 -d 3 -p cbr -e 500 -c 0 -i 14 -a 0 -x {1.0 3.1 -1 ------- null}
+ -t 0.255 -s 1 -d 2 -p cbr -e 500 -c 0 -i 23 -a 0 -x {1.0 3.1 11 ------- null}
- -t 0.255 -s 1 -d 2 -p cbr -e 500 -c 0 -i 23 -a 0 -x {1.0 3.1 11 ------- null}
h -t 0.255 -s 1 -d 2 -p cbr -e 500 -c 0 -i 23 -a 0 -x {1.0 3.1 -1 ------- null}
r -t 0.25664 -s 2 -d 3 -p cbr -e 500 -c 0 -i 13 -a 0 -x {1.0 3.1 3 ------- null}
r -t 0.25696 -s 2 -d 0 -p ack -e 40 -c 1 -i 18 -a 1 -x {3.0 0.0 3 ------- null}
+ -t 0.25696 -s 0 -d 2 -p tcp -e 1040 -c 1 -i 24 -a 1 -x {0.0 3.0 7 ------- null}
- -t 0.25696 -s 0 -d 2 -p tcp -e 1040 -c 1 -i 24 -a 1 -x {0.0 3.0 7 ------- null}
h -t 0.25696 -s 0 -d 2 -p tcp -e 1040 -c 1 -i 24 -a 1 -x {0.0 3.0 -1 ------- null}
+ -t 0.25696 -s 0 -d 2 -p tcp -e 1040 -c 1 -i 25 -a 1 -x {0.0 3.0 8 ------- null}
- -t 0.25896 -s 2 -d 3 -p cbr -e 500 -c 0 -i 15 -a 0 -x {1.0 3.1 5 ------- null}
h -t 0.25896 -s 2 -d 3 -p cbr -e 500 -c 0 -i 15 -a 0 -x {1.0 3.1 -1 ------- null}
r -t 0.259 -s 1 -d 2 -p cbr -e 500 -c 0 -i 20 -a 0 -x {1.0 3.1 9 ------- null}
+ -t 0.259 -s 2 -d 3 -p cbr -e 500 -c 0 -i 20 -a 0 -x {1.0 3.1 9 ------- null}
+ -t 0.26 -s 1 -d 2 -p cbr -e 500 -c 0 -i 26 -a 0 -x {1.0 3.1 12 ------- null}
- -t 0.26 -s 1 -d 2 -p cbr -e 500 -c 0 -i 26 -a 0 -x {1.0 3.1 12 ------- null}
h -t 0.26 -s 1 -d 2 -p cbr -e 500 -c 0 -i 26 -a 0 -x {1.0 3.1 -1 ------- null}
r -t 0.26296 -s 3 -d 2 -p ack -e 40 -c 1 -i 22 -a 1 -x {3.0 0.0 4 ------- null}
+ -t 0.26296 -s 2 -d 0 -p ack -e 40 -c 1 -i 22 -a 1 -x {3.0 0.0 4 ------- null}
- -t 0.26296 -s 2 -d 0 -p ack -e 40 -c 1 -i 22 -a 1 -x {3.0 0.0 4 ------- null}
h -t 0.26296 -s 2 -d 0 -p ack -e 40 -c 1 -i 22 -a 1 -x {3.0 0.0 -1 ------- null}
- -t 0.26296 -s 2 -d 3 -p tcp -e 1040 -c 1 -i 11 -a 1 -x {0.0 3.0 6 ------- null}
h -t 0.26296 -s 2 -d 3 -p tcp -e 1040 -c 1 -i 11 -a 1 -x {0.0 3.0 -1 ------- null}
r -t 0.264 -s 1 -d 2 -p cbr -e 500 -c 0 -i 21 -a 0 -x {1.0 3.1 10 ------- null}
+ -t 0.264 -s 2 -d 3 -p cbr -e 500 -c 0 -i 21 -a 0 -x {1.0 3.1 10 ------- null}
r -t 0.26496 -s 2 -d 3 -p tcp -e 1040 -c 1 -i 10 -a 1 -x {0.0 3.0 5 ------- null}
+ -t 0.26496 -s 3 -d 2 -p ack -e 40 -c 1 -i 27 -a 1 -x {3.0 0.0 5 ------- null}
- -t 0.26496 -s 3 -d 2 -p ack -e 40 -c 1 -i 27 -a 1 -x {3.0 0.0 5 ------- null}
h -t 0.26496 -s 3 -d 2 -p ack -e 40 -c 1 -i 27 -a 1 -x {3.0 0.0 -1 ------- null}
+ -t 0.265 -s 1 -d 2 -p cbr -e 500 -c 0 -i 28 -a 0 -x {1.0 3.1 13 ------- null}
- -t 0.265 -s 1 -d 2 -p cbr -e 500 -c 0 -i 28 -a 0 -x {1.0 3.1 13 ------- null}
h -t 0.265 -s 1 -d 2 -p cbr -e 500 -c 0 -i 28 -a 0 -x {1.0 3.1 -1 ------- null}
- -t 0.26528 -s 0 -d 2 -p tcp -e 1040 -c 1 -i 25 -a 1 -x {0.0 3.0 8 ------- null}
h -t 0.26528 -s 0 -d 2 -p tcp -e 1040 -c 1 -i 25 -a 1 -x {0.0 3.0 -1 ------- null}
r -t 0.26896 -s 2 -d 3 -p cbr -e 500 -c 0 -i 14 -a 0 -x {1.0 3.1 4 ------- null}
r -t 0.269 -s 1 -d 2 -p cbr -e 500 -c 0 -i 23 -a 0 -x {1.0 3.1 11 ------- null}
+ -t 0.269 -s 2 -d 3 -p cbr -e 500 -c 0 -i 23 -a 0 -x {1.0 3.1 11 ------- null}
+ -t 0.27 -s 1 -d 2 -p cbr -e 500 -c 0 -i 29 -a 0 -x {1.0 3.1 14 ------- null}
- -t 0.27 -s 1 -d 2 -p cbr -e 500 -c 0 -i 29 -a 0 -x {1.0 3.1 14 ------- null}
h -t 0.27 -s 1 -d 2 -p cbr -e 500 -c 0 -i 29 -a 0 -x {1.0 3.1 -1 ------- null}
- -t 0.27128 -s 2 -d 3 -p cbr -e 500 -c 0 -i 16 -a 0 -x {1.0 3.1 6 ------- null}
h -t 0.27128 -s 2 -d 3 -p cbr -e 500 -c 0 -i 16 -a 0 -x {1.0 3.1 -1 ------- null}
r -t 0.27296 -s 2 -d 3 -p cbr -e 500 -c 0 -i 15 -a 0 -x {1.0 3.1 5 ------- null}
r -t 0.27328 -s 2 -d 0 -p ack -e 40 -c 1 -i 22 -a 1 -x {3.0 0.0 4 ------- null}
+ -t 0.27328 -s 0 -d 2 -p tcp -e 1040 -c 1 -i 30 -a 1 -x {0.0 3.0 9 ------- null}
+ -t 0.27328 -s 0 -d 2 -p tcp -e 1040 -c 1 -i 31 -a 1 -x {0.0 3.0 10 ------- null}
- -t 0.2736 -s 0 -d 2 -p tcp -e 1040 -c 1 -i 30 -a 1 -x {0.0 3.0 9 ------- null}
h -t 0.2736 -s 0 -d 2 -p tcp -e 1040 -c 1 -i 30 -a 1 -x {0.0 3.0 -1 ------- null}
r -t 0.274 -s 1 -d 2 -p cbr -e 500 -c 0 -i 26 -a 0 -x {1.0 3.1 12 ------- null}
+ -t 0.274 -s 2 -d 3 -p cbr -e 500 -c 0 -i 26 -a 0 -x {1.0 3.1 12 ------- null}
+ -t 0.275 -s 1 -d 2 -p cbr -e 500 -c 0 -i 32 -a 0 -x {1.0 3.1 15 ------- null}
- -t 0.275 -s 1 -d 2 -p cbr -e 500 -c 0 -i 32 -a 0 -x {1.0 3.1 15 ------- null}
h -t 0.275 -s 1 -d 2 -p cbr -e 500 -c 0 -i 32 -a 0 -x {1.0 3.1 -1 ------- null}
r -t 0.27528 -s 0 -d 2 -p tcp -e 1040 -c 1 -i 24 -a 1 -x {0.0 3.0 7 ------- null}
+ -t 0.27528 -s 2 -d 3 -p tcp -e 1040 -c 1 -i 24 -a 1 -x {0.0 3.0 7 ------- null}
r -t 0.27528 -s 3 -d 2 -p ack -e 40 -c 1 -i 27 -a 1 -x {3.0 0.0 5 ------- null}
+ -t 0.27528 -s 2 -d 0 -p ack -e 40 -c 1 -i 27 -a 1 -x {3.0 0.0 5 ------- null}
- -t 0.27528 -s 2 -d 0 -p ack -e 40 -c 1 -i 27 -a 1 -x {3.0 0.0 5 ------- null}
h -t 0.27528 -s 2 -d 0 -p ack -e 40 -c 1 -i 27 -a 1 -x {3.0 0.0 -1 ------- null}
- -t 0.27528 -s 2 -d 3 -p cbr -e 500 -c 0 -i 17 -a 0 -x {1.0 3.1 7 ------- null}
h -t 0.27528 -s 2 -d 3 -p cbr -e 500 -c 0 -i 17 -a 0 -x {1.0 3.1 -1 ------- null}
r -t 0.279 -s 1 -d 2 -p cbr -e 500 -c 0 -i 28 -a 0 -x {1.0 3.1 13 ------- null}
+ -t 0.279 -s 2 -d 3 -p cbr -e 500 -c 0 -i 28 -a 0 -x {1.0 3.1 13 ------- null}
- -t 0.27928 -s 2 -d 3 -p cbr -e 500 -c 0 -i 19 -a 0 -x {1.0 3.1 8 ------- null}
h -t 0.27928 -s 2 -d 3 -p cbr -e 500 -c 0 -i 19 -a 0 -x {1.0 3.1 -1 ------- null}
+ -t 0.28 -s 1 -d 2 -p cbr -e 500 -c 0 -i 33 -a 0 -x {1.0 3.1 16 ------- null}
- -t 0.28 -s 1 -d 2 -p cbr -e 500 -c 0 -i 33 -a 0 -x {1.0 3.1 16 ------- null}
h -t 0.28 -s 1 -d 2 -p cbr -e 500 -c 0 -i 33 -a 0 -x {1.0 3.1 -1 ------- null}
r -t 0.28128 -s 2 -d 3 -p tcp -e 1040 -c 1 -i 11 -a 1 -x {0.0 3.0 6 ------- null}
+ -t 0.28128 -s 3 -d 2 -p ack -e 40 -c 1 -i 34 -a 1 -x {3.0 0.0 6 ------- null}
- -t 0.28128 -s 3 -d 2 -p ack -e 40 -c 1 -i 34 -a 1 -x {3.0 0.0 6 ------- null}
h -t 0.28128 -s 3 -d 2 -p ack -e 40 -c 1 -i 34 -a 1 -x {3.0 0.0 -1 ------- null}
- -t 0.28192 -s 0 -d 2 -p tcp -e 1040 -c 1 -i 31 -a 1 -x {0.0 3.0 10 ------- null}
h -t 0.28192 -s 0 -d 2 -p tcp -e 1040 -c 1 -i 31 -a 1 -x {0.0 3.0 -1 ------- null}
- -t 0.28328 -s 2 -d 3 -p cbr -e 500 -c 0 -i 20 -a 0 -x {1.0 3.1 9 ------- null}
h -t 0.28328 -s 2 -d 3 -p cbr -e 500 -c 0 -i 20 -a 0 -x {1.0 3.1 -1 ------- null}
r -t 0.2836 -s 0 -d 2 -p tcp -e 1040 -c 1 -i 25 -a 1 -x {0.0 3.0 8 ------- null}
+ -t 0.2836 -s 2 -d 3 -p tcp -e 1040 -c 1 -i 25 -a 1 -x {0.0 3.0 8 ------- null}
r -t 0.284 -s 1 -d 2 -p cbr -e 500 -c 0 -i 29 -a 0 -x {1.0 3.1 14 ------- null}
+ -t 0.284 -s 2 -d 3 -p cbr -e 500 -c 0 -i 29 -a 0 -x {1.0 3.1 14 ------- null}
+ -t 0.285 -s 1 -d 2 -p cbr -e 500 -c 0 -i 35 -a 0 -x {1.0 3.1 17 ------- null}
- -t 0.285 -s 1 -d 2 -p cbr -e 500 -c 0 -i 35 -a 0 -x {1.0 3.1 17 ------- null}
h -t 0.285 -s 1 -d 2 -p cbr -e 500 -c 0 -i 35 -a 0 -x {1.0 3.1 -1 ------- null}
r -t 0.28528 -s 2 -d 3 -p cbr -e 500 -c 0 -i 16 -a 0 -x {1.0 3.1 6 ------- null}
r -t 0.2856 -s 2 -d 0 -p ack -e 40 -c 1 -i 27 -a 1 -x {3.0 0.0 5 ------- null}
+ -t 0.2856 -s 0 -d 2 -p tcp -e 1040 -c 1 -i 36 -a 1 -x {0.0 3.0 11 ------- null}
+ -t 0.2856 -s 0 -d 2 -p tcp -e 1040 -c 1 -i 37 -a 1 -x {0.0 3.0 12 ------- null}
- -t 0.28728 -s 2 -d 3 -p cbr -e 500 -c 0 -i 21 -a 0 -x {1.0 3.1 10 ------- null}
h -t 0.28728 -s 2 -d 3 -p cbr -e 500 -c 0 -i 21 -a 0 -x {1.0 3.1 -1 ------- null}
r -t 0.289 -s 1 -d 2 -p cbr -e 500 -c 0 -i 32 -a 0 -x {1.0 3.1 15 ------- null}
+ -t 0.289 -s 2 -d 3 -p cbr -e 500 -c 0 -i 32 -a 0 -x {1.0 3.1 15 ------- null}
r -t 0.28928 -s 2 -d 3 -p cbr -e 500 -c 0 -i 17 -a 0 -x {1.0 3.1 7 ------- null}
+ -t 0.29 -s 1 -d 2 -p cbr -e 500 -c 0 -i 38 -a 0 -x {1.0 3.1 18 ------- null}
- -t 0.29 -s 1 -d 2 -p cbr -e 500 -c 0 -i 38 -a 0 -x {1.0 3.1 18 ------- null}
h -t 0.29 -s 1 -d 2 -p cbr -e 500 -c 0 -i 38 -a 0 -x {1.0 3.1 -1 ------- null}
- -t 0.29024 -s 0 -d 2 -p tcp -e 1040 -c 1 -i 36 -a 1 -x {0.0 3.0 11 ------- null}
h -t 0.29024 -s 0 -d 2 -p tcp -e 1040 -c 1 -i 36 -a 1 -x {0.0 3.0 -1 ------- null}
- -t 0.29128 -s 2 -d 3 -p cbr -e 500 -c 0 -i 23 -a 0 -x {1.0 3.1 11 ------- null}
h -t 0.29128 -s 2 -d 3 -p cbr -e 500 -c 0 -i 23 -a 0 -x {1.0 3.1 -1 ------- null}
r -t 0.2916 -s 3 -d 2 -p ack -e 40 -c 1 -i 34 -a 1 -x {3.0 0.0 6 ------- null}
+ -t 0.2916 -s 2 -d 0 -p ack -e 40 -c 1 -i 34 -a 1 -x {3.0 0.0 6 ------- null}
- -t 0.2916 -s 2 -d 0 -p ack -e 40 -c 1 -i 34 -a 1 -x {3.0 0.0 6 ------- null}
h -t 0.2916 -s 2 -d 0 -p ack -e 40 -c 1 -i 34 -a 1 -x {3.0 0.0 -1 ------- null}
r -t 0.29192 -s 0 -d 2 -p tcp -e 1040 -c 1 -i 30 -a 1 -x {0.0 3.0 9 ------- null}
+ -t 0.29192 -s 2 -d 3 -p tcp -e 1040 -c 1 -i 30 -a 1 -x {0.0 3.0 9 ------- null}
r -t 0.29328 -s 2 -d 3 -p cbr -e 500 -c 0 -i 19 -a 0 -x {1.0 3.1 8 ------- null}
r -t 0.294 -s 1 -d 2 -p cbr -e 500 -c 0 -i 33 -a 0 -x {1.0 3.1 16 ------- null}
+ -t 0.294 -s 2 -d 3 -p cbr -e 500 -c 0 -i 33 -a 0 -x {1.0 3.1 16 ------- null}
+ -t 0.295 -s 1 -d 2 -p cbr -e 500 -c 0 -i 39 -a 0 -x {1.0 3.1 19 ------- null}
- -t 0.295 -s 1 -d 2 -p cbr -e 500 -c 0 -i 39 -a 0 -x {1.0 3.1 19 ------- null}
h -t 0.295 -s 1 -d 2 -p cbr -e 500 -c 0 -i 39 -a 0 -x {1.0 3.1 -1 ------- null}
- -t 0.29528 -s 2 -d 3 -p cbr -e 500 -c 0 -i 26 -a 0 -x {1.0 3.1 12 ------- null}
h -t 0.29528 -s 2 -d 3 -p cbr -e 500 -c 0 -i 26 -a 0 -x {1.0 3.1 -1 ------- null}
r -t 0.29728 -s 2 -d 3 -p cbr -e 500 -c 0 -i 20 -a 0 -x {1.0 3.1 9 ------- null}
- -t 0.29856 -s 0 -d 2 -p tcp -e 1040 -c 1 -i 37 -a 1 -x {0.0 3.0 12 ------- null}
h -t 0.29856 -s 0 -d 2 -p tcp -e 1040 -c 1 -i 37 -a 1 -x {0.0 3.0 -1 ------- null}
r -t 0.299 -s 1 -d 2 -p cbr -e 500 -c 0 -i 35 -a 0 -x {1.0 3.1 17 ------- null}
+ -t 0.299 -s 2 -d 3 -p cbr -e 500 -c 0 -i 35 -a 0 -x {1.0 3.1 17 ------- null}
- -t 0.29928 -s 2 -d 3 -p tcp -e 1040 -c 1 -i 24 -a 1 -x {0.0 3.0 7 ------- null}
h -t 0.29928 -s 2 -d 3 -p tcp -e 1040 -c 1 -i 24 -a 1 -x {0.0 3.0 -1 ------- null}
+ -t 0.3 -s 1 -d 2 -p cbr -e 500 -c 0 -i 40 -a 0 -x {1.0 3.1 20 ------- null}
- -t 0.3 -s 1 -d 2 -p cbr -e 500 -c 0 -i 40 -a 0 -x {1.0 3.1 20 ------- null}
h -t 0.3 -s 1 -d 2 -p cbr -e 500 -c 0 -i 40 -a 0 -x {1.0 3.1 -1 ------- null}
r -t 0.30024 -s 0 -d 2 -p tcp -e 1040 -c 1 -i 31 -a 1 -x {0.0 3.0 10 ------- null}
+ -t 0.30024 -s 2 -d 3 -p tcp -e 1040 -c 1 -i 31 -a 1 -x {0.0 3.0 10 ------- null}
r -t 0.30128 -s 2 -d 3 -p cbr -e 500 -c 0 -i 21 -a 0 -x {1.0 3.1 10 ------- null}
r -t 0.30192 -s 2 -d 0 -p ack -e 40 -c 1 -i 34 -a 1 -x {3.0 0.0 6 ------- null}
+ -t 0.30192 -s 0 -d 2 -p tcp -e 1040 -c 1 -i 41 -a 1 -x {0.0 3.0 13 ------- null}
+ -t 0.30192 -s 0 -d 2 -p tcp -e 1040 -c 1 -i 42 -a 1 -x {0.0 3.0 14 ------- null}
r -t 0.304 -s 1 -d 2 -p cbr -e 500 -c 0 -i 38 -a 0 -x {1.0 3.1 18 ------- null}
+ -t 0.304 -s 2 -d 3 -p cbr -e 500 -c 0 -i 38 -a 0 -x {1.0 3.1 18 ------- null}
+ -t 0.305 -s 1 -d 2 -p cbr -e 500 -c 0 -i 43 -a 0 -x {1.0 3.1 21 ------- null}
- -t 0.305 -s 1 -d 2 -p cbr -e 500 -c 0 -i 43 -a 0 -x {1.0 3.1 21 ------- null}
h -t 0.305 -s 1 -d 2 -p cbr -e 500 -c 0 -i 43 -a 0 -x {1.0 3.1 -1 ------- null}
r -t 0.30528 -s 2 -d 3 -p cbr -e 500 -c 0 -i 23 -a 0 -x {1.0 3.1 11 ------- null}
- -t 0.30688 -s 0 -d 2 -p tcp -e 1040 -c 1 -i 41 -a 1 -x {0.0 3.0 13 ------- null}
h -t 0.30688 -s 0 -d 2 -p tcp -e 1040 -c 1 -i 41 -a 1 -x {0.0 3.0 -1 ------- null}
- -t 0.3076 -s 2 -d 3 -p cbr -e 500 -c 0 -i 28 -a 0 -x {1.0 3.1 13 ------- null}
h -t 0.3076 -s 2 -d 3 -p cbr -e 500 -c 0 -i 28 -a 0 -x {1.0 3.1 -1 ------- null}
r -t 0.30856 -s 0 -d 2 -p tcp -e 1040 -c 1 -i 36 -a 1 -x {0.0 3.0 11 ------- null}
+ -t 0.30856 -s 2 -d 3 -p tcp -e 1040 -c 1 -i 36 -a 1 -x {0.0 3.0 11 ------- null}
r -t 0.309 -s 1 -d 2 -p cbr -e 500 -c 0 -i 39 -a 0 -x {1.0 3.1 19 ------- null}
+ -t 0.309 -s 2 -d 3 -p cbr -e 500 -c 0 -i 39 -a 0 -x {1.0 3.1 19 ------- null}
r -t 0.30928 -s 2 -d 3 -p cbr -e 500 -c 0 -i 26 -a 0 -x {1.0 3.1 12 ------- null}
+ -t 0.31 -s 1 -d 2 -p cbr -e 500 -c 0 -i 44 -a 0 -x {1.0 3.1 22 ------- null}
- -t 0.31 -s 1 -d 2 -p cbr -e 500 -c 0 -i 44 -a 0 -x {1.0 3.1 22 ------- null}
h -t 0.31 -s 1 -d 2 -p cbr -e 500 -c 0 -i 44 -a 0 -x {1.0 3.1 -1 ------- null}
- -t 0.3116 -s 2 -d 3 -p tcp -e 1040 -c 1 -i 25 -a 1 -x {0.0 3.0 8 ------- null}
h -t 0.3116 -s 2 -d 3 -p tcp -e 1040 -c 1 -i 25 -a 1 -x {0.0 3.0 -1 ------- null}
r -t 0.314 -s 1 -d 2 -p cbr -e 500 -c 0 -i 40 -a 0 -x {1.0 3.1 20 ------- null}
+ -t 0.314 -s 2 -d 3 -p cbr -e 500 -c 0 -i 40 -a 0 -x {1.0 3.1 20 ------- null}
+ -t 0.315 -s 1 -d 2 -p cbr -e 500 -c 0 -i 45 -a 0 -x {1.0 3.1 23 ------- null}
- -t 0.315 -s 1 -d 2 -p cbr -e 500 -c 0 -i 45 -a 0 -x {1.0 3.1 23 ------- null}
h -t 0.315 -s 1 -d 2 -p cbr -e 500 -c 0 -i 45 -a 0 -x {1.0 3.1 -1 ------- null}
- -t 0.3152 -s 0 -d 2 -p tcp -e 1040 -c 1 -i 42 -a 1 -x {0.0 3.0 14 ------- null}
h -t 0.3152 -s 0 -d 2 -p tcp -e 1040 -c 1 -i 42 -a 1 -x {0.0 3.0 -1 ------- null}
r -t 0.31688 -s 0 -d 2 -p tcp -e 1040 -c 1 -i 37 -a 1 -x {0.0 3.0 12 ------- null}
+ -t 0.31688 -s 2 -d 3 -p tcp -e 1040 -c 1 -i 37 -a 1 -x {0.0 3.0 12 ------- null}
r -t 0.3176 -s 2 -d 3 -p tcp -e 1040 -c 1 -i 24 -a 1 -x {0.0 3.0 7 ------- null}
+ -t 0.3176 -s 3 -d 2 -p ack -e 40 -c 1 -i 46 -a 1 -x {3.0 0.0 7 ------- null}
- -t 0.3176 -s 3 -d 2 -p ack -e 40 -c 1 -i 46 -a 1 -x {3.0 0.0 7 ------- null}
h -t 0.3176 -s 3 -d 2 -p ack -e 40 -c 1 -i 46 -a 1 -x {3.0 0.0 -1 ------- null}
r -t 0.319 -s 1 -d 2 -p cbr -e 500 -c 0 -i 43 -a 0 -x {1.0 3.1 21 ------- null}
+ -t 0.319 -s 2 -d 3 -p cbr -e 500 -c 0 -i 43 -a 0 -x {1.0 3.1 21 ------- null}
- -t 0.31992 -s 2 -d 3 -p cbr -e 500 -c 0 -i 29 -a 0 -x {1.0 3.1 14 ------- null}
h -t 0.31992 -s 2 -d 3 -p cbr -e 500 -c 0 -i 29 -a 0 -x {1.0 3.1 -1 ------- null}
+ -t 0.32 -s 1 -d 2 -p cbr -e 500 -c 0 -i 47 -a 0 -x {1.0 3.1 24 ------- null}
- -t 0.32 -s 1 -d 2 -p cbr -e 500 -c 0 -i 47 -a 0 -x {1.0 3.1 24 ------- null}
h -t 0.32 -s 1 -d 2 -p cbr -e 500 -c 0 -i 47 -a 0 -x {1.0 3.1 -1 ------- null}
r -t 0.3216 -s 2 -d 3 -p cbr -e 500 -c 0 -i 28 -a 0 -x {1.0 3.1 13 ------- null}
- -t 0.32392 -s 2 -d 3 -p cbr -e 500 -c 0 -i 32 -a 0 -x {1.0 3.1 15 ------- null}
h -t 0.32392 -s 2 -d 3 -p cbr -e 500 -c 0 -i 32 -a 0 -x {1.0 3.1 -1 ------- null}
r -t 0.324 -s 1 -d 2 -p cbr -e 500 -c 0 -i 44 -a 0 -x {1.0 3.1 22 ------- null}
+ -t 0.324 -s 2 -d 3 -p cbr -e 500 -c 0 -i 44 -a 0 -x {1.0 3.1 22 ------- null}
+ -t 0.325 -s 1 -d 2 -p cbr -e 500 -c 0 -i 48 -a 0 -x {1.0 3.1 25 ------- null}
- -t 0.325 -s 1 -d 2 -p cbr -e 500 -c 0 -i 48 -a 0 -x {1.0 3.1 25 ------- null}
h -t 0.325 -s 1 -d 2 -p cbr -e 500 -c 0 -i 48 -a 0 -x {1.0 3.1 -1 ------- null}
r -t 0.3252 -s 0 -d 2 -p tcp -e 1040 -c 1 -i 41 -a 1 -x {0.0 3.0 13 ------- null}
+ -t 0.3252 -s 2 -d 3 -p tcp -e 1040 -c 1 -i 41 -a 1 -x {0.0 3.0 13 ------- null}
r -t 0.32792 -s 3 -d 2 -p ack -e 40 -c 1 -i 46 -a 1 -x {3.0 0.0 7 ------- null}
+ -t 0.32792 -s 2 -d 0 -p ack -e 40 -c 1 -i 46 -a 1 -x {3.0 0.0 7 ------- null}
- -t 0.32792 -s 2 -d 0 -p ack -e 40 -c 1 -i 46 -a 1 -x {3.0 0.0 7 ------- null}
h -t 0.32792 -s 2 -d 0 -p ack -e 40 -c 1 -i 46 -a 1 -x {3.0 0.0 -1 ------- null}
- -t 0.32792 -s 2 -d 3 -p tcp -e 1040 -c 1 -i 30 -a 1 -x {0.0 3.0 9 ------- null}
h -t 0.32792 -s 2 -d 3 -p tcp -e 1040 -c 1 -i 30 -a 1 -x {0.0 3.0 -1 ------- null}
r -t 0.329 -s 1 -d 2 -p cbr -e 500 -c 0 -i 45 -a 0 -x {1.0 3.1 23 ------- null}
+ -t 0.329 -s 2 -d 3 -p cbr -e 500 -c 0 -i 45 -a 0 -x {1.0 3.1 23 ------- null}
r -t 0.32992 -s 2 -d 3 -p tcp -e 1040 -c 1 -i 25 -a 1 -x {0.0 3.0 8 ------- null}
+ -t 0.32992 -s 3 -d 2 -p ack -e 40 -c 1 -i 49 -a 1 -x {3.0 0.0 8 ------- null}
- -t 0.32992 -s 3 -d 2 -p ack -e 40 -c 1 -i 49 -a 1 -x {3.0 0.0 8 ------- null}
h -t 0.32992 -s 3 -d 2 -p ack -e 40 -c 1 -i 49 -a 1 -x {3.0 0.0 -1 ------- null}
+ -t 0.33 -s 1 -d 2 -p cbr -e 500 -c 0 -i 50 -a 0 -x {1.0 3.1 26 ------- null}
- -t 0.33 -s 1 -d 2 -p cbr -e 500 -c 0 -i 50 -a 0 -x {1.0 3.1 26 ------- null}
h -t 0.33 -s 1 -d 2 -p cbr -e 500 -c 0 -i 50 -a 0 -x {1.0 3.1 -1 ------- null}
r -t 0.33352 -s 0 -d 2 -p tcp -e 1040 -c 1 -i 42 -a 1 -x {0.0 3.0 14 ------- null}
+ -t 0.33352 -s 2 -d 3 -p tcp -e 1040 -c 1 -i 42 -a 1 -x {0.0 3.0 14 ------- null}
r -t 0.33392 -s 2 -d 3 -p cbr -e 500 -c 0 -i 29 -a 0 -x {1.0 3.1 14 ------- null}
r -t 0.334 -s 1 -d 2 -p cbr -e 500 -c 0 -i 47 -a 0 -x {1.0 3.1 24 ------- null}
+ -t 0.334 -s 2 -d 3 -p cbr -e 500 -c 0 -i 47 -a 0 -x {1.0 3.1 24 ------- null}
+ -t 0.335 -s 1 -d 2 -p cbr -e 500 -c 0 -i 51 -a 0 -x {1.0 3.1 27 ------- null}
- -t 0.335 -s 1 -d 2 -p cbr -e 500 -c 0 -i 51 -a 0 -x {1.0 3.1 27 ------- null}
h -t 0.335 -s 1 -d 2 -p cbr -e 500 -c 0 -i 51 -a 0 -x {1.0 3.1 -1 ------- null}
- -t 0.33624 -s 2 -d 3 -p cbr -e 500 -c 0 -i 33 -a 0 -x {1.0 3.1 16 ------- null}
h -t 0.33624 -s 2 -d 3 -p cbr -e 500 -c 0 -i 33 -a 0 -x {1.0 3.1 -1 ------- null}
r -t 0.33792 -s 2 -d 3 -p cbr -e 500 -c 0 -i 32 -a 0 -x {1.0 3.1 15 ------- null}
r -t 0.33824 -s 2 -d 0 -p ack -e 40 -c 1 -i 46 -a 1 -x {3.0 0.0 7 ------- null}
+ -t 0.33824 -s 0 -d 2 -p tcp -e 1040 -c 1 -i 52 -a 1 -x {0.0 3.0 15 ------- null}
- -t 0.33824 -s 0 -d 2 -p tcp -e 1040 -c 1 -i 52 -a 1 -x {0.0 3.0 15 ------- null}
h -t 0.33824 -s 0 -d 2 -p tcp -e 1040 -c 1 -i 52 -a 1 -x {0.0 3.0 -1 ------- null}
+ -t 0.33824 -s 0 -d 2 -p tcp -e 1040 -c 1 -i 53 -a 1 -x {0.0 3.0 16 ------- null}
r -t 0.339 -s 1 -d 2 -p cbr -e 500 -c 0 -i 48 -a 0 -x {1.0 3.1 25 ------- null}
+ -t 0.339 -s 2 -d 3 -p cbr -e 500 -c 0 -i 48 -a 0 -x {1.0 3.1 25 ------- null}
+ -t 0.34 -s 1 -d 2 -p cbr -e 500 -c 0 -i 54 -a 0 -x {1.0 3.1 28 ------- null}
- -t 0.34 -s 1 -d 2 -p cbr -e 500 -c 0 -i 54 -a 0 -x {1.0 3.1 28 ------- null}
h -t 0.34 -s 1 -d 2 -p cbr -e 500 -c 0 -i 54 -a 0 -x {1.0 3.1 -1 ------- null}
r -t 0.34024 -s 3 -d 2 -p ack -e 40 -c 1 -i 49 -a 1 -x {3.0 0.0 8 ------- null}
+ -t 0.34024 -s 2 -d 0 -p ack -e 40 -c 1 -i 49 -a 1 -x {3.0 0.0 8 ------- null}