+ 0.1 0 2 tcp 40 ------- 1 0.0 3.0 0 0
- 0.1 0 2 tcp 40 ------- 1 0.0 3.0 0 0
r 0.11032 0 2 tcp 40 ------- 1 0.0 3.0 0 0
+ 0.11032 2 3 tcp 40 ------- 1 0.0 3.0 0 0
- 0.11032 2 3 tcp 40 ------- 1 0.0 3.0 0 0
r 0.12064 2 3 tcp 40 ------- 1 0.0 3.0 0 0
+ 0.12064 3 2 ack 40 ------- 1 3.0 0.0 0 1
- 0.12064 3 2 ack 40 ------- 1 3.0 0.0 0 1
r 0.13096 3 2 ack 40 ------- 1 3.0 0.0 0 1
+ 0.13096 2 0 ack 40 ------- 1 3.0 0.0 0 1
- 0.13096 2 0 ack 40 ------- 1 3.0 0.0 0 1
r 0.14128 2 0 ack 40 ------- 1 3.0 0.0 0 1
+ 0.14128 0 2 tcp 1040 ------- 1 0.0 3.0 1 2
- 0.14128 0 2 tcp 1040 ------- 1 0.0 3.0 1 2
+ 0.14128 0 2 tcp 1040 ------- 1 0.0 3.0 2 3
- 0.1496 0 2 tcp 1040 ------- 1 0.0 3.0 2 3
r 0.1596 0 2 tcp 1040 ------- 1 0.0 3.0 1 2
+ 0.1596 2 3 tcp 1040 ------- 1 0.0 3.0 1 2
- 0.1596 2 3 tcp 1040 ------- 1 0.0 3.0 1 2
r 0.16792 0 2 tcp 1040 ------- 1 0.0 3.0 2 3
+ 0.16792 2 3 tcp 1040 ------- 1 0.0 3.0 2 3
- 0.16792 2 3 tcp 1040 ------- 1 0.0 3.0 2 3
r 0.17792 2 3 tcp 1040 ------- 1 0.0 3.0 1 2
+ 0.17792 3 2 ack 40 ------- 1 3.0 0.0 1 4
- 0.17792 3 2 ack 40 ------- 1 3.0 0.0 1 4
r 0.18624 2 3 tcp 1040 ------- 1 0.0 3.0 2 3
+ 0.18624 3 2 ack 40 ------- 1 3.0 0.0 2 5
- 0.18624 3 2 ack 40 ------- 1 3.0 0.0 2 5
r 0.18824 3 2 ack 40 ------- 1 3.0 0.0 1 4
+ 0.18824 2 0 ack 40 ------- 1 3.0 0.0 1 4
- 0.18824 2 0 ack 40 ------- 1 3.0 0.0 1 4
r 0.19656 3 2 ack 40 ------- 1 3.0 0.0 2 5
+ 0.19656 2 0 ack 40 ------- 1 3.0 0.0 2 5
- 0.19656 2 0 ack 40 ------- 1 3.0 0.0 2 5
r 0.19856 2 0 ack 40 ------- 1 3.0 0.0 1 4
+ 0.19856 0 2 tcp 1040 ------- 1 0.0 3.0 3 6
- 0.19856 0 2 tcp 1040 ------- 1 0.0 3.0 3 6
+ 0.19856 0 2 tcp 1040 ------- 1 0.0 3.0 4 7
+ 0.2 1 2 cbr 500 ------- 0 1.0 3.1 0 8
- 0.2 1 2 cbr 500 ------- 0 1.0 3.1 0 8
+ 0.205 1 2 cbr 500 ------- 0 1.0 3.1 1 9
- 0.205 1 2 cbr 500 ------- 0 1.0 3.1 1 9
r 0.20688 2 0 ack 40 ------- 1 3.0 0.0 2 5
+ 0.20688 0 2 tcp 1040 ------- 1 0.0 3.0 5 10
+ 0.20688 0 2 tcp 1040 ------- 1 0.0 3.0 6 11
- 0.20688 0 2 tcp 1040 ------- 1 0.0 3.0 4 7
+ 0.21 1 2 cbr 500 ------- 0 1.0 3.1 2 12
- 0.21 1 2 cbr 500 ------- 0 1.0 3.1 2 12
r 0.214 1 2 cbr 500 ------- 0 1.0 3.1 0 8
+ 0.214 2 3 cbr 500 ------- 0 1.0 3.1 0 8
- 0.214 2 3 cbr 500 ------- 0 1.0 3.1 0 8
+ 0.215 1 2 cbr 500 ------- 0 1.0 3.1 3 13
- 0.215 1 2 cbr 500 ------- 0 1.0 3.1 3 13
- 0.2152 0 2 tcp 1040 ------- 1 0.0 3.0 5 10
r 0.21688 0 2 tcp 1040 ------- 1 0.0 3.0 3 6
+ 0.21688 2 3 tcp 1040 ------- 1 0.0 3.0 3 6
- 0.218 2 3 tcp 1040 ------- 1 0.0 3.0 3 6
r 0.219 1 2 cbr 500 ------- 0 1.0 3.1 1 9
+ 0.219 2 3 cbr 500 ------- 0 1.0 3.1 1 9
+ 0.22 1 2 cbr 500 ------- 0 1.0 3.1 4 14
- 0.22 1 2 cbr 500 ------- 0 1.0 3.1 4 14
- 0.22352 0 2 tcp 1040 ------- 1 0.0 3.0 6 11
r 0.224 1 2 cbr 500 ------- 0 1.0 3.1 2 12
+ 0.224 2 3 cbr 500 ------- 0 1.0 3.1 2 12
+ 0.225 1 2 cbr 500 ------- 0 1.0 3.1 5 15
- 0.225 1 2 cbr 500 ------- 0 1.0 3.1 5 15
r 0.2252 0 2 tcp 1040 ------- 1 0.0 3.0 4 7
+ 0.2252 2 3 tcp 1040 ------- 1 0.0 3.0 4 7
- 0.22632 2 3 cbr 500 ------- 0 1.0 3.1 1 9
r 0.228 2 3 cbr 500 ------- 0 1.0 3.1 0 8
r 0.229 1 2 cbr 500 ------- 0 1.0 3.1 3 13
+ 0.229 2 3 cbr 500 ------- 0 1.0 3.1 3 13
+ 0.23 1 2 cbr 500 ------- 0 1.0 3.1 6 16
- 0.23 1 2 cbr 500 ------- 0 1.0 3.1 6 16
- 0.23032 2 3 cbr 500 ------- 0 1.0 3.1 2 12
r 0.23352 0 2 tcp 1040 ------- 1 0.0 3.0 5 10
+ 0.23352 2 3 tcp 1040 ------- 1 0.0 3.0 5 10
r 0.234 1 2 cbr 500 ------- 0 1.0 3.1 4 14
+ 0.234 2 3 cbr 500 ------- 0 1.0 3.1 4 14
- 0.23432 2 3 tcp 1040 ------- 1 0.0 3.0 4 7
+ 0.235 1 2 cbr 500 ------- 0 1.0 3.1 7 17
- 0.235 1 2 cbr 500 ------- 0 1.0 3.1 7 17
r 0.23632 2 3 tcp 1040 ------- 1 0.0 3.0 3 6
+ 0.23632 3 2 ack 40 ------- 1 3.0 0.0 3 18
- 0.23632 3 2 ack 40 ------- 1 3.0 0.0 3 18
r 0.239 1 2 cbr 500 ------- 0 1.0 3.1 5 15
+ 0.239 2 3 cbr 500 ------- 0 1.0 3.1 5 15
+ 0.24 1 2 cbr 500 ------- 0 1.0 3.1 8 19
- 0.24 1 2 cbr 500 ------- 0 1.0 3.1 8 19
r 0.24032 2 3 cbr 500 ------- 0 1.0 3.1 1 9
r 0.24184 0 2 tcp 1040 ------- 1 0.0 3.0 6 11
+ 0.24184 2 3 tcp 1040 ------- 1 0.0 3.0 6 11
- 0.24264 2 3 cbr 500 ------- 0 1.0 3.1 3 13
r 0.244 1 2 cbr 500 ------- 0 1.0 3.1 6 16
+ 0.244 2 3 cbr 500 ------- 0 1.0 3.1 6 16
r 0.24432 2 3 cbr 500 ------- 0 1.0 3.1 2 12
+ 0.245 1 2 cbr 500 ------- 0 1.0 3.1 9 20
- 0.245 1 2 cbr 500 ------- 0 1.0 3.1 9 20
r 0.24664 3 2 ack 40 ------- 1 3.0 0.0 3 18
+ 0.24664 2 0 ack 40 ------- 1 3.0 0.0 3 18
- 0.24664 2 0 ack 40 ------- 1 3.0 0.0 3 18
- 0.24664 2 3 tcp 1040 ------- 1 0.0 3.0 5 10
r 0.249 1 2 cbr 500 ------- 0 1.0 3.1 7 17
+ 0.249 2 3 cbr 500 ------- 0 1.0 3.1 7 17
+ 0.25 1 2 cbr 500 ------- 0 1.0 3.1 10 21
- 0.25 1 2 cbr 500 ------- 0 1.0 3.1 10 21
r 0.25264 2 3 tcp 1040 ------- 1 0.0 3.0 4 7
+ 0.25264 3 2 ack 40 ------- 1 3.0 0.0 4 22
- 0.25264 3 2 ack 40 ------- 1 3.0 0.0 4 22
r 0.254 1 2 cbr 500 ------- 0 1.0 3.1 8 19
+ 0.254 2 3 cbr 500 ------- 0 1.0 3.1 8 19
- 0.25496 2 3 cbr 500 ------- 0 1.0 3.1 4 14
+ 0.255 1 2 cbr 500 ------- 0 1.0 3.1 11 23
- 0.255 1 2 cbr 500 ------- 0 1.0 3.1 11 23
r 0.25664 2 3 cbr 500 ------- 0 1.0 3.1 3 13
r 0.25696 2 0 ack 40 ------- 1 3.0 0.0 3 18
+ 0.25696 0 2 tcp 1040 ------- 1 0.0 3.0 7 24
- 0.25696 0 2 tcp 1040 ------- 1 0.0 3.0 7 24
+ 0.25696 0 2 tcp 1040 ------- 1 0.0 3.0 8 25
- 0.25896 2 3 cbr 500 ------- 0 1.0 3.1 5 15
r 0.259 1 2 cbr 500 ------- 0 1.0 3.1 9 20
+ 0.259 2 3 cbr 500 ------- 0 1.0 3.1 9 20
+ 0.26 1 2 cbr 500 ------- 0 1.0 3.1 12 26
- 0.26 1 2 cbr 500 ------- 0 1.0 3.1 12 26
r 0.26296 3 2 ack 40 ------- 1 3.0 0.0 4 22
+ 0.26296 2 0 ack 40 ------- 1 3.0 0.0 4 22
- 0.26296 2 0 ack 40 ------- 1 3.0 0.0 4 22
- 0.26296 2 3 tcp 1040 ------- 1 0.0 3.0 6 11
r 0.264 1 2 cbr 500 ------- 0 1.0 3.1 10 21
+ 0.264 2 3 cbr 500 ------- 0 1.0 3.1 10 21
r 0.26496 2 3 tcp 1040 ------- 1 0.0 3.0 5 10
+ 0.26496 3 2 ack 40 ------- 1 3.0 0.0 5 27
- 0.26496 3 2 ack 40 ------- 1 3.0 0.0 5 27
+ 0.265 1 2 cbr 500 ------- 0 1.0 3.1 13 28
- 0.265 1 2 cbr 500 ------- 0 1.0 3.1 13 28
- 0.26528 0 2 tcp 1040 ------- 1 0.0 3.0 8 25
r 0.26896 2 3 cbr 500 ------- 0 1.0 3.1 4 14
r 0.269 1 2 cbr 500 ------- 0 1.0 3.1 11 23
+ 0.269 2 3 cbr 500 ------- 0 1.0 3.1 11 23
+ 0.27 1 2 cbr 500 ------- 0 1.0 3.1 14 29
- 0.27 1 2 cbr 500 ------- 0 1.0 3.1 14 29
- 0.27128 2 3 cbr 500 ------- 0 1.0 3.1 6 16
r 0.27296 2 3 cbr 500 ------- 0 1.0 3.1 5 15
r 0.27328 2 0 ack 40 ------- 1 3.0 0.0 4 22
+ 0.27328 0 2 tcp 1040 ------- 1 0.0 3.0 9 30
+ 0.27328 0 2 tcp 1040 ------- 1 0.0 3.0 10 31
- 0.2736 0 2 tcp 1040 ------- 1 0.0 3.0 9 30
r 0.274 1 2 cbr 500 ------- 0 1.0 3.1 12 26
+ 0.274 2 3 cbr 500 ------- 0 1.0 3.1 12 26
+ 0.275 1 2 cbr 500 ------- 0 1.0 3.1 15 32
- 0.275 1 2 cbr 500 ------- 0 1.0 3.1 15 32
r 0.27528 0 2 tcp 1040 ------- 1 0.0 3.0 7 24
+ 0.27528 2 3 tcp 1040 ------- 1 0.0 3.0 7 24
r 0.27528 3 2 ack 40 ------- 1 3.0 0.0 5 27
+ 0.27528 2 0 ack 40 ------- 1 3.0 0.0 5 27
- 0.27528 2 0 ack 40 ------- 1 3.0 0.0 5 27
- 0.27528 2 3 cbr 500 ------- 0 1.0 3.1 7 17
r 0.279 1 2 cbr 500 ------- 0 1.0 3.1 13 28
+ 0.279 2 3 cbr 500 ------- 0 1.0 3.1 13 28
- 0.27928 2 3 cbr 500 ------- 0 1.0 3.1 8 19
+ 0.28 1 2 cbr 500 ------- 0 1.0 3.1 16 33
- 0.28 1 2 cbr 500 ------- 0 1.0 3.1 16 33
r 0.28128 2 3 tcp 1040 ------- 1 0.0 3.0 6 11
+ 0.28128 3 2 ack 40 ------- 1 3.0 0.0 6 34
- 0.28128 3 2 ack 40 ------- 1 3.0 0.0 6 34
- 0.28192 0 2 tcp 1040 ------- 1 0.0 3.0 10 31
- 0.28328 2 3 cbr 500 ------- 0 1.0 3.1 9 20
r 0.2836 0 2 tcp 1040 ------- 1 0.0 3.0 8 25
+ 0.2836 2 3 tcp 1040 ------- 1 0.0 3.0 8 25
r 0.284 1 2 cbr 500 ------- 0 1.0 3.1 14 29
+ 0.284 2 3 cbr 500 ------- 0 1.0 3.1 14 29
+ 0.285 1 2 cbr 500 ------- 0 1.0 3.1 17 35
- 0.285 1 2 cbr 500 ------- 0 1.0 3.1 17 35
r 0.28528 2 3 cbr 500 ------- 0 1.0 3.1 6 16
r 0.2856 2 0 ack 40 ------- 1 3.0 0.0 5 27
+ 0.2856 0 2 tcp 1040 ------- 1 0.0 3.0 11 36
+ 0.2856 0 2 tcp 1040 ------- 1 0.0 3.0 12 37
- 0.28728 2 3 cbr 500 ------- 0 1.0 3.1 10 21
r 0.289 1 2 cbr 500 ------- 0 1.0 3.1 15 32
+ 0.289 2 3 cbr 500 ------- 0 1.0 3.1 15 32
r 0.28928 2 3 cbr 500 ------- 0 1.0 3.1 7 17
+ 0.29 1 2 cbr 500 ------- 0 1.0 3.1 18 38
- 0.29 1 2 cbr 500 ------- 0 1.0 3.1 18 38
- 0.29024 0 2 tcp 1040 ------- 1 0.0 3.0 11 36
- 0.29128 2 3 cbr 500 ------- 0 1.0 3.1 11 23
r 0.2916 3 2 ack 40 ------- 1 3.0 0.0 6 34
+ 0.2916 2 0 ack 40 ------- 1 3.0 0.0 6 34
- 0.2916 2 0 ack 40 ------- 1 3.0 0.0 6 34
r 0.29192 0 2 tcp 1040 ------- 1 0.0 3.0 9 30
+ 0.29192 2 3 tcp 1040 ------- 1 0.0 3.0 9 30
r 0.29328 2 3 cbr 500 ------- 0 1.0 3.1 8 19
r 0.294 1 2 cbr 500 ------- 0 1.0 3.1 16 33
+ 0.294 2 3 cbr 500 ------- 0 1.0 3.1 16 33
+ 0.295 1 2 cbr 500 ------- 0 1.0 3.1 19 39
- 0.295 1 2 cbr 500 ------- 0 1.0 3.1 19 39
- 0.29528 2 3 cbr 500 ------- 0 1.0 3.1 12 26
r 0.29728 2 3 cbr 500 ------- 0 1.0 3.1 9 20
- 0.29856 0 2 tcp 1040 ------- 1 0.0 3.0 12 37
r 0.299 1 2 cbr 500 ------- 0 1.0 3.1 17 35
+ 0.299 2 3 cbr 500 ------- 0 1.0 3.1 17 35
- 0.29928 2 3 tcp 1040 ------- 1 0.0 3.0 7 24
+ 0.3 1 2 cbr 500 ------- 0 1.0 3.1 20 40
- 0.3 1 2 cbr 500 ------- 0 1.0 3.1 20 40
r 0.30024 0 2 tcp 1040 ------- 1 0.0 3.0 10 31
+ 0.30024 2 3 tcp 1040 ------- 1 0.0 3.0 10 31
r 0.30128 2 3 cbr 500 ------- 0 1.0 3.1 10 21
r 0.30192 2 0 ack 40 ------- 1 3.0 0.0 6 34
+ 0.30192 0 2 tcp 1040 ------- 1 0.0 3.0 13 41
+ 0.30192 0 2 tcp 1040 ------- 1 0.0 3.0 14 42
r 0.304 1 2 cbr 500 ------- 0 1.0 3.1 18 38
+ 0.304 2 3 cbr 500 ------- 0 1.0 3.1 18 38
+ 0.305 1 2 cbr 500 ------- 0 1.0 3.1 21 43
- 0.305 1 2 cbr 500 ------- 0 1.0 3.1 21 43
r 0.30528 2 3 cbr 500 ------- 0 1.0 3.1 11 23
- 0.30688 0 2 tcp 1040 ------- 1 0.0 3.0 13 41
- 0.3076 2 3 cbr 500 ------- 0 1.0 3.1 13 28
r 0.30856 0 2 tcp 1040 ------- 1 0.0 3.0 11 36
+ 0.30856 2 3 tcp 1040 ------- 1 0.0 3.0 11 36
r 0.309 1 2 cbr 500 ------- 0 1.0 3.1 19 39
+ 0.309 2 3 cbr 500 ------- 0 1.0 3.1 19 39
r 0.30928 2 3 cbr 500 ------- 0 1.0 3.1 12 26
+ 0.31 1 2 cbr 500 ------- 0 1.0 3.1 22 44
- 0.31 1 2 cbr 500 ------- 0 1.0 3.1 22 44
- 0.3116 2 3 tcp 1040 ------- 1 0.0 3.0 8 25
r 0.314 1 2 cbr 500 ------- 0 1.0 3.1 20 40
+ 0.314 2 3 cbr 500 ------- 0 1.0 3.1 20 40
+ 0.315 1 2 cbr 500 ------- 0 1.0 3.1 23 45
- 0.315 1 2 cbr 500 ------- 0 1.0 3.1 23 45
- 0.3152 0 2 tcp 1040 ------- 1 0.0 3.0 14 42
r 0.31688 0 2 tcp 1040 ------- 1 0.0 3.0 12 37
+ 0.31688 2 3 tcp 1040 ------- 1 0.0 3.0 12 37
r 0.3176 2 3 tcp 1040 ------- 1 0.0 3.0 7 24
+ 0.3176 3 2 ack 40 ------- 1 3.0 0.0 7 46
- 0.3176 3 2 ack 40 ------- 1 3.0 0.0 7 46
r 0.319 1 2 cbr 500 ------- 0 1.0 3.1 21 43
+ 0.319 2 3 cbr 500 ------- 0 1.0 3.1 21 43
- 0.31992 2 3 cbr 500 ------- 0 1.0 3.1 14 29
+ 0.32 1 2 cbr 500 ------- 0 1.0 3.1 24 47
- 0.32 1 2 cbr 500 ------- 0 1.0 3.1 24 47
r 0.3216 2 3 cbr 500 ------- 0 1.0 3.1 13 28
- 0.32392 2 3 cbr 500 ------- 0 1.0 3.1 15 32
r 0.324 1 2 cbr 500 ------- 0 1.0 3.1 22 44
+ 0.324 2 3 cbr 500 ------- 0 1.0 3.1 22 44
+ 0.325 1 2 cbr 500 ------- 0 1.0 3.1 25 48
- 0.325 1 2 cbr 500 ------- 0 1.0 3.1 25 48
r 0.3252 0 2 tcp 1040 ------- 1 0.0 3.0 13 41
+ 0.3252 2 3 tcp 1040 ------- 1 0.0 3.0 13 41
r 0.32792 3 2 ack 40 ------- 1 3.0 0.0 7 46
+ 0.32792 2 0 ack 40 ------- 1 3.0 0.0 7 46
- 0.32792 2 0 ack 40 ------- 1 3.0 0.0 7 46
- 0.32792 2 3 tcp 1040 ------- 1 0.0 3.0 9 30
r 0.329 1 2 cbr 500 ------- 0 1.0 3.1 23 45
+ 0.329 2 3 cbr 500 ------- 0 1.0 3.1 23 45
r 0.32992 2 3 tcp 1040 ------- 1 0.0 3.0 8 25
+ 0.32992 3 2 ack 40 ------- 1 3.0 0.0 8 49
- 0.32992 3 2 ack 40 ------- 1 3.0 0.0 8 49
+ 0.33 1 2 cbr 500 ------- 0 1.0 3.1 26 50
- 0.33 1 2 cbr 500 ------- 0 1.0 3.1 26 50
r 0.33352 0 2 tcp 1040 ------- 1 0.0 3.0 14 42
+ 0.33352 2 3 tcp 1040 ------- 1 0.0 3.0 14 42
r 0.33392 2 3 cbr 500 ------- 0 1.0 3.1 14 29
r 0.334 1 2 cbr 500 ------- 0 1.0 3.1 24 47
+ 0.334 2 3 cbr 500 ------- 0 1.0 3.1 24 47
+ 0.335 1 2 cbr 500 ------- 0 1.0 3.1 27 51
- 0.335 1 2 cbr 500 ------- 0 1.0 3.1 27 51
- 0.33624 2 3 cbr 500 ------- 0 1.0 3.1 16 33
r 0.33792 2 3 cbr 500 ------- 0 1.0 3.1 15 32
r 0.33824 2 0 ack 40 ------- 1 3.0 0.0 7 46
+ 0.33824 0 2 tcp 1040 ------- 1 0.0 3.0 15 52
- 0.33824 0 2 tcp 1040 ------- 1 0.0 3.0 15 52
+ 0.33824 0 2 tcp 1040 ------- 1 0.0 3.0 16 53
r 0.339 1 2 cbr 500 ------- 0 1.0 3.1 25 48
+ 0.339 2 3 cbr 500 ------- 0 1.0 3.1 25 48
+ 0.34 1 2 cbr 500 ------- 0 1.0 3.1 28 54
- 0.34 1 2 cbr 500 ------- 0 1.0 3.1 28 54
r 0.34024 3 2 ack 40 ------- 1 3.0 0.0 8 49
+ 0.34024 2 0 ack 40 ------- 1 3.0 0.0 8 49
- 0.34024 2 0 ack 40 ------- 1 3.0 0.0 8 49
- 0.34024 2 3 cbr 500 ------- 0 1.0 3.1 17 35
r 0.344 1 2 cbr 500 ------- 0 1.0 3.1 26 50
+ 0.344 2 3 cbr 500 ------- 0 1.0 3.1 26 50
- 0.34424 2 3 tcp 1040 ------- 1 0.0 3.0 10 31
+ 0.345 1 2 cbr 500 ------- 0 1.0 3.1 29 55
- 0.345 1 2 cbr 500 ------- 0 1.0 3.1 29 55
r 0.34624 2 3 tcp 1040 ------- 1 0.0 3.0 9 30
+ 0.34624 3 2 ack 40 ------- 1 3.0 0.0 9 56
- 0.34624 3 2 ack 40 ------- 1 3.0 0.0 9 56
- 0.34656 0 2 tcp 1040 ------- 1 0.0 3.0 16 53
r 0.349 1 2 cbr 500 ------- 0 1.0 3.1 27 51
+ 0.349 2 3 cbr 500 ------- 0 1.0 3.1 27 51
+ 0.35 1 2 cbr 500 ------- 0 1.0 3.1 30 57
- 0.35 1 2 cbr 500 ------- 0 1.0 3.1 30 57
r 0.35024 2 3 cbr 500 ------- 0 1.0 3.1 16 33
r 0.35056 2 0 ack 40 ------- 1 3.0 0.0 8 49
+ 0.35056 0 2 tcp 1040 ------- 1 0.0 3.0 17 58
+ 0.35056 0 2 tcp 1040 ------- 1 0.0 3.0 18 59
- 0.35256 2 3 cbr 500 ------- 0 1.0 3.1 18 38
r 0.354 1 2 cbr 500 ------- 0 1.0 3.1 28 54
+ 0.354 2 3 cbr 500 ------- 0 1.0 3.1 28 54
r 0.35424 2 3 cbr 500 ------- 0 1.0 3.1 17 35
- 0.35488 0 2 tcp 1040 ------- 1 0.0 3.0 17 58
+ 0.355 1 2 cbr 500 ------- 0 1.0 3.1 31 60
- 0.355 1 2 cbr 500 ------- 0 1.0 3.1 31 60
r 0.35656 0 2 tcp 1040 ------- 1 0.0 3.0 15 52
+ 0.35656 2 3 tcp 1040 ------- 1 0.0 3.0 15 52
r 0.35656 3 2 ack 40 ------- 1 3.0 0.0 9 56
+ 0.35656 2 0 ack 40 ------- 1 3.0 0.0 9 56
- 0.35656 2 0 ack 40 ------- 1 3.0 0.0 9 56
- 0.35656 2 3 tcp 1040 ------- 1 0.0 3.0 11 36
r 0.359 1 2 cbr 500 ------- 0 1.0 3.1 29 55
+ 0.359 2 3 cbr 500 ------- 0 1.0 3.1 29 55
+ 0.36 1 2 cbr 500 ------- 0 1.0 3.1 32 61
- 0.36 1 2 cbr 500 ------- 0 1.0 3.1 32 61
r 0.36256 2 3 tcp 1040 ------- 1 0.0 3.0 10 31
+ 0.36256 3 2 ack 40 ------- 1 3.0 0.0 10 62
- 0.36256 3 2 ack 40 ------- 1 3.0 0.0 10 62
- 0.3632 0 2 tcp 1040 ------- 1 0.0 3.0 18 59
r 0.364 1 2 cbr 500 ------- 0 1.0 3.1 30 57
+ 0.364 2 3 cbr 500 ------- 0 1.0 3.1 30 57
r 0.36488 0 2 tcp 1040 ------- 1 0.0 3.0 16 53
+ 0.36488 2 3 tcp 1040 ------- 1 0.0 3.0 16 53
- 0.36488 2 3 cbr 500 ------- 0 1.0 3.1 19 39
+ 0.365 1 2 cbr 500 ------- 0 1.0 3.1 33 63
- 0.365 1 2 cbr 500 ------- 0 1.0 3.1 33 63
r 0.36656 2 3 cbr 500 ------- 0 1.0 3.1 18 38
r 0.36688 2 0 ack 40 ------- 1 3.0 0.0 9 56
+ 0.36688 0 2 tcp 1040 ------- 1 0.0 3.0 19 64
+ 0.36688 0 2 tcp 1040 ------- 1 0.0 3.0 20 65
- 0.36888 2 3 cbr 500 ------- 0 1.0 3.1 20 40
r 0.369 1 2 cbr 500 ------- 0 1.0 3.1 31 60
+ 0.369 2 3 cbr 500 ------- 0 1.0 3.1 31 60
+ 0.37 1 2 cbr 500 ------- 0 1.0 3.1 34 66
- 0.37 1 2 cbr 500 ------- 0 1.0 3.1 34 66
- 0.37152 0 2 tcp 1040 ------- 1 0.0 3.0 19 64
r 0.37288 3 2 ack 40 ------- 1 3.0 0.0 10 62
+ 0.37288 2 0 ack 40 ------- 1 3.0 0.0 10 62
- 0.37288 2 0 ack 40 ------- 1 3.0 0.0 10 62
- 0.37288 2 3 tcp 1040 ------- 1 0.0 3.0 12 37
r 0.3732 0 2 tcp 1040 ------- 1 0.0 3.0 17 58
+ 0.3732 2 3 tcp 1040 ------- 1 0.0 3.0 17 58
r 0.374 1 2 cbr 500 ------- 0 1.0 3.1 32 61
+ 0.374 2 3 cbr 500 ------- 0 1.0 3.1 32 61
r 0.37488 2 3 tcp 1040 ------- 1 0.0 3.0 11 36
+ 0.37488 3 2 ack 40 ------- 1 3.0 0.0 11 67
- 0.37488 3 2 ack 40 ------- 1 3.0 0.0 11 67
+ 0.375 1 2 cbr 500 ------- 0 1.0 3.1 35 68
- 0.375 1 2 cbr 500 ------- 0 1.0 3.1 35 68
r 0.37888 2 3 cbr 500 ------- 0 1.0 3.1 19 39
r 0.379 1 2 cbr 500 ------- 0 1.0 3.1 33 63
+ 0.379 2 3 cbr 500 ------- 0 1.0 3.1 33 63
- 0.37984 0 2 tcp 1040 ------- 1 0.0 3.0 20 65
+ 0.38 1 2 cbr 500 ------- 0 1.0 3.1 36 69
- 0.38 1 2 cbr 500 ------- 0 1.0 3.1 36 69
- 0.3812 2 3 cbr 500 ------- 0 1.0 3.1 21 43
r 0.38152 0 2 tcp 1040 ------- 1 0.0 3.0 18 59
+ 0.38152 2 3 tcp 1040 ------- 1 0.0 3.0 18 59
r 0.38288 2 3 cbr 500 ------- 0 1.0 3.1 20 40
r 0.3832 2 0 ack 40 ------- 1 3.0 0.0 10 62
+ 0.3832 0 2 tcp 1040 ------- 1 0.0 3.0 21 70
+ 0.3832 0 2 tcp 1040 ------- 1 0.0 3.0 22 71
r 0.384 1 2 cbr 500 ------- 0 1.0 3.1 34 66
+ 0.384 2 3 cbr 500 ------- 0 1.0 3.1 34 66
+ 0.385 1 2 cbr 500 ------- 0 1.0 3.1 37 72
- 0.385 1 2 cbr 500 ------- 0 1.0 3.1 37 72
r 0.3852 3 2 ack 40 ------- 1 3.0 0.0 11 67
+ 0.3852 2 0 ack 40 ------- 1 3.0 0.0 11 67
- 0.3852 2 0 ack 40 ------- 1 3.0 0.0 11 67
- 0.3852 2 3 cbr 500 ------- 0 1.0 3.1 22 44
- 0.38816 0 2 tcp 1040 ------- 1 0.0 3.0 21 70
r 0.389 1 2 cbr 500 ------- 0 1.0 3.1 35 68
+ 0.389 2 3 cbr 500 ------- 0 1.0 3.1 35 68
- 0.3892 2 3 tcp 1040 ------- 1 0.0 3.0 13 41
r 0.38984 0 2 tcp 1040 ------- 1 0.0 3.0 19 64
+ 0.38984 2 3 tcp 1040 ------- 1 0.0 3.0 19 64
+ 0.39 1 2 cbr 500 ------- 0 1.0 3.1 38 73
- 0.39 1 2 cbr 500 ------- 0 1.0 3.1 38 73
r 0.3912 2 3 tcp 1040 ------- 1 0.0 3.0 12 37
+ 0.3912 3 2 ack 40 ------- 1 3.0 0.0 12 74
- 0.3912 3 2 ack 40 ------- 1 3.0 0.0 12 74
r 0.394 1 2 cbr 500 ------- 0 1.0 3.1 36 69
+ 0.394 2 3 cbr 500 ------- 0 1.0 3.1 36 69
+ 0.395 1 2 cbr 500 ------- 0 1.0 3.1 39 75
- 0.395 1 2 cbr 500 ------- 0 1.0 3.1 39 75
r 0.3952 2 3 cbr 500 ------- 0 1.0 3.1 21 43
r 0.39552 2 0 ack 40 ------- 1 3.0 0.0 11 67
+ 0.39552 0 2 tcp 1040 ------- 1 0.0 3.0 23 76
+ 0.39552 0 2 tcp 1040 ------- 1 0.0 3.0 24 77
- 0.39648 0 2 tcp 1040 ------- 1 0.0 3.0 22 71
- 0.39752 2 3 cbr 500 ------- 0 1.0 3.1 23 45
r 0.39816 0 2 tcp 1040 ------- 1 0.0 3.0 20 65
+ 0.39816 2 3 tcp 1040 ------- 1 0.0 3.0 20 65
r 0.399 1 2 cbr 500 ------- 0 1.0 3.1 37 72
+ 0.399 2 3 cbr 500 ------- 0 1.0 3.1 37 72
r 0.3992 2 3 cbr 500 ------- 0 1.0 3.1 22 44
+ 0.4 1 2 cbr 500 ------- 0 1.0 3.1 40 78
- 0.4 1 2 cbr 500 ------- 0 1.0 3.1 40 78
r 0.40152 3 2 ack 40 ------- 1 3.0 0.0 12 74
+ 0.40152 2 0 ack 40 ------- 1 3.0 0.0 12 74
- 0.40152 2 0 ack 40 ------- 1 3.0 0.0 12 74
- 0.40152 2 3 tcp 1040 ------- 1 0.0 3.0 14 42
r 0.404 1 2 cbr 500 ------- 0 1.0 3.1 38 73
+ 0.404 2 3 cbr 500 ------- 0 1.0 3.1 38 73
- 0.4048 0 2 tcp 1040 ------- 1 0.0 3.0 23 76
+ 0.405 1 2 cbr 500 ------- 0 1.0 3.1 41 79
- 0.405 1 2 cbr 500 ------- 0 1.0 3.1 41 79
r 0.40648 0 2 tcp 1040 ------- 1 0.0 3.0 21 70
+ 0.40648 2 3 tcp 1040 ------- 1 0.0 3.0 21 70
r 0.40752 2 3 tcp 1040 ------- 1 0.0 3.0 13 41
+ 0.40752 3 2 ack 40 ------- 1 3.0 0.0 13 80
- 0.40752 3 2 ack 40 ------- 1 3.0 0.0 13 80
r 0.409 1 2 cbr 500 ------- 0 1.0 3.1 39 75
+ 0.409 2 3 cbr 500 ------- 0 1.0 3.1 39 75
- 0.40984 2 3 cbr 500 ------- 0 1.0 3.1 24 47
+ 0.41 1 2 cbr 500 ------- 0 1.0 3.1 42 81
- 0.41 1 2 cbr 500 ------- 0 1.0 3.1 42 81
r 0.41152 2 3 cbr 500 ------- 0 1.0 3.1 23 45
r 0.41184 2 0 ack 40 ------- 1 3.0 0.0 12 74
+ 0.41184 0 2 tcp 1040 ------- 1 0.0 3.0 25 82
+ 0.41184 0 2 tcp 1040 ------- 1 0.0 3.0 26 83
- 0.41312 0 2 tcp 1040 ------- 1 0.0 3.0 24 77
- 0.41384 2 3 cbr 500 ------- 0 1.0 3.1 25 48
r 0.414 1 2 cbr 500 ------- 0 1.0 3.1 40 78
+ 0.414 2 3 cbr 500 ------- 0 1.0 3.1 40 78
r 0.4148 0 2 tcp 1040 ------- 1 0.0 3.0 22 71
+ 0.4148 2 3 tcp 1040 ------- 1 0.0 3.0 22 71
+ 0.415 1 2 cbr 500 ------- 0 1.0 3.1 43 84
- 0.415 1 2 cbr 500 ------- 0 1.0 3.1 43 84
r 0.41784 3 2 ack 40 ------- 1 3.0 0.0 13 80
+ 0.41784 2 0 ack 40 ------- 1 3.0 0.0 13 80
- 0.41784 2 0 ack 40 ------- 1 3.0 0.0 13 80
- 0.41784 2 3 cbr 500 ------- 0 1.0 3.1 26 50
r 0.419 1 2 cbr 500 ------- 0 1.0 3.1 41 79
+ 0.419 2 3 cbr 500 ------- 0 1.0 3.1 41 79
r 0.41984 2 3 tcp 1040 ------- 1 0.0 3.0 14 42
+ 0.41984 3 2 ack 40 ------- 1 3.0 0.0 14 85
- 0.41984 3 2 ack 40 ------- 1 3.0 0.0 14 85
+ 0.42 1 2 cbr 500 ------- 0 1.0 3.1 44 86
- 0.42 1 2 cbr 500 ------- 0 1.0 3.1 44 86
- 0.42144 0 2 tcp 1040 ------- 1 0.0 3.0 25 82
- 0.42184 2 3 cbr 500 ------- 0 1.0 3.1 27 51
r 0.42312 0 2 tcp 1040 ------- 1 0.0 3.0 23 76
+ 0.42312 2 3 tcp 1040 ------- 1 0.0 3.0 23 76
r 0.42384 2 3 cbr 500 ------- 0 1.0 3.1 24 47
r 0.424 1 2 cbr 500 ------- 0 1.0 3.1 42 81
+ 0.424 2 3 cbr 500 ------- 0 1.0 3.1 42 81
+ 0.425 1 2 cbr 500 ------- 0 1.0 3.1 45 87
- 0.425 1 2 cbr 500 ------- 0 1.0 3.1 45 87
- 0.42584 2 3 cbr 500 ------- 0 1.0 3.1 28 54
r 0.42784 2 3 cbr 500 ------- 0 1.0 3.1 25 48
r 0.42816 2 0 ack 40 ------- 1 3.0 0.0 13 80
+ 0.42816 0 2 tcp 1040 ------- 1 0.0 3.0 27 88
+ 0.42816 0 2 tcp 1040 ------- 1 0.0 3.0 28 89
r 0.429 1 2 cbr 500 ------- 0 1.0 3.1 43 84
+ 0.429 2 3 cbr 500 ------- 0 1.0 3.1 43 84
- 0.42976 0 2 tcp 1040 ------- 1 0.0 3.0 26 83
- 0.42984 2 3 tcp 1040 ------- 1 0.0 3.0 15 52
+ 0.43 1 2 cbr 500 ------- 0 1.0 3.1 46 90
- 0.43 1 2 cbr 500 ------- 0 1.0 3.1 46 90
r 0.43016 3 2 ack 40 ------- 1 3.0 0.0 14 85
+ 0.43016 2 0 ack 40 ------- 1 3.0 0.0 14 85
- 0.43016 2 0 ack 40 ------- 1 3.0 0.0 14 85
r 0.43144 0 2 tcp 1040 ------- 1 0.0 3.0 24 77
+ 0.43144 2 3 tcp 1040 ------- 1 0.0 3.0 24 77
r 0.43184 2 3 cbr 500 ------- 0 1.0 3.1 26 50
r 0.434 1 2 cbr 500 ------- 0 1.0 3.1 44 86
+ 0.434 2 3 cbr 500 ------- 0 1.0 3.1 44 86
+ 0.435 1 2 cbr 500 ------- 0 1.0 3.1 47 91
- 0.435 1 2 cbr 500 ------- 0 1.0 3.1 47 91
r 0.43584 2 3 cbr 500 ------- 0 1.0 3.1 27 51
- 0.43808 0 2 tcp 1040 ------- 1 0.0 3.0 27 88
- 0.43816 2 3 cbr 500 ------- 0 1.0 3.1 29 55
r 0.439 1 2 cbr 500 ------- 0 1.0 3.1 45 87
+ 0.439 2 3 cbr 500 ------- 0 1.0 3.1 45 87
r 0.43976 0 2 tcp 1040 ------- 1 0.0 3.0 25 82
+ 0.43976 2 3 tcp 1040 ------- 1 0.0 3.0 25 82
r 0.43984 2 3 cbr 500 ------- 0 1.0 3.1 28 54
+ 0.44 1 2 cbr 500 ------- 0 1.0 3.1 48 92
- 0.44 1 2 cbr 500 ------- 0 1.0 3.1 48 92
r 0.44048 2 0 ack 40 ------- 1 3.0 0.0 14 85
+ 0.44048 0 2 tcp 1040 ------- 1 0.0 3.0 29 93
+ 0.44048 0 2 tcp 1040 ------- 1 0.0 3.0 30 94
- 0.44216 2 3 cbr 500 ------- 0 1.0 3.1 30 57
r 0.444 1 2 cbr 500 ------- 0 1.0 3.1 46 90
+ 0.444 2 3 cbr 500 ------- 0 1.0 3.1 46 90
+ 0.445 1 2 cbr 500 ------- 0 1.0 3.1 49 95
- 0.445 1 2 cbr 500 ------- 0 1.0 3.1 49 95
- 0.44616 2 3 tcp 1040 ------- 1 0.0 3.0 16 53
- 0.4464 0 2 tcp 1040 ------- 1 0.0 3.0 28 89
r 0.44808 0 2 tcp 1040 ------- 1 0.0 3.0 26 83
+ 0.44808 2 3 tcp 1040 ------- 1 0.0 3.0 26 83
r 0.44816 2 3 tcp 1040 ------- 1 0.0 3.0 15 52
+ 0.44816 3 2 ack 40 ------- 1 3.0 0.0 15 96
- 0.44816 3 2 ack 40 ------- 1 3.0 0.0 15 96
r 0.449 1 2 cbr 500 ------- 0 1.0 3.1 47 91
+ 0.449 2 3 cbr 500 ------- 0 1.0 3.1 47 91
+ 0.45 1 2 cbr 500 ------- 0 1.0 3.1 50 97
- 0.45 1 2 cbr 500 ------- 0 1.0 3.1 50 97
r 0.45216 2 3 cbr 500 ------- 0 1.0 3.1 29 55
r 0.454 1 2 cbr 500 ------- 0 1.0 3.1 48 92
+ 0.454 2 3 cbr 500 ------- 0 1.0 3.1 48 92
- 0.45448 2 3 cbr 500 ------- 0 1.0 3.1 31 60
- 0.45472 0 2 tcp 1040 ------- 1 0.0 3.0 29 93
+ 0.455 1 2 cbr 500 ------- 0 1.0 3.1 51 98
- 0.455 1 2 cbr 500 ------- 0 1.0 3.1 51 98
r 0.45616 2 3 cbr 500 ------- 0 1.0 3.1 30 57
r 0.4564 0 2 tcp 1040 ------- 1 0.0 3.0 27 88
+ 0.4564 2 3 tcp 1040 ------- 1 0.0 3.0 27 88
r 0.45848 3 2 ack 40 ------- 1 3.0 0.0 15 96
+ 0.45848 2 0 ack 40 ------- 1 3.0 0.0 15 96
- 0.45848 2 0 ack 40 ------- 1 3.0 0.0 15 96
- 0.45848 2 3 tcp 1040 ------- 1 0.0 3.0 17 58
r 0.459 1 2 cbr 500 ------- 0 1.0 3.1 49 95
+ 0.459 2 3 cbr 500 ------- 0 1.0 3.1 49 95
+ 0.46 1 2 cbr 500 ------- 0 1.0 3.1 52 99
- 0.46 1 2 cbr 500 ------- 0 1.0 3.1 52 99
- 0.46304 0 2 tcp 1040 ------- 1 0.0 3.0 30 94
r 0.464 1 2 cbr 500 ------- 0 1.0 3.1 50 97
+ 0.464 2 3 cbr 500 ------- 0 1.0 3.1 50 97
r 0.46448 2 3 tcp 1040 ------- 1 0.0 3.0 16 53
+ 0.46448 3 2 ack 40 ------- 1 3.0 0.0 16 100
- 0.46448 3 2 ack 40 ------- 1 3.0 0.0 16 100
r 0.46472 0 2 tcp 1040 ------- 1 0.0 3.0 28 89
+ 0.46472 2 3 tcp 1040 ------- 1 0.0 3.0 28 89
+ 0.465 1 2 cbr 500 ------- 0 1.0 3.1 53 101
- 0.465 1 2 cbr 500 ------- 0 1.0 3.1 53 101
- 0.4668 2 3 cbr 500 ------- 0 1.0 3.1 32 61
r 0.46848 2 3 cbr 500 ------- 0 1.0 3.1 31 60
r 0.4688 2 0 ack 40 ------- 1 3.0 0.0 15 96
+ 0.4688 0 2 tcp 1040 ------- 1 0.0 3.0 31 102
+ 0.4688 0 2 tcp 1040 ------- 1 0.0 3.0 32 103
r 0.469 1 2 cbr 500 ------- 0 1.0 3.1 51 98
+ 0.469 2 3 cbr 500 ------- 0 1.0 3.1 51 98
+ 0.47 1 2 cbr 500 ------- 0 1.0 3.1 54 104
- 0.47 1 2 cbr 500 ------- 0 1.0 3.1 54 104
- 0.4708 2 3 cbr 500 ------- 0 1.0 3.1 33 63
- 0.47136 0 2 tcp 1040 ------- 1 0.0 3.0 31 102
r 0.47304 0 2 tcp 1040 ------- 1 0.0 3.0 29 93
+ 0.47304 2 3 tcp 1040 ------- 1 0.0 3.0 29 93
r 0.474 1 2 cbr 500 ------- 0 1.0 3.1 52 99
+ 0.474 2 3 cbr 500 ------- 0 1.0 3.1 52 99
r 0.4748 3 2 ack 40 ------- 1 3.0 0.0 16 100
+ 0.4748 2 0 ack 40 ------- 1 3.0 0.0 16 100
- 0.4748 2 0 ack 40 ------- 1 3.0 0.0 16 100
- 0.4748 2 3 tcp 1040 ------- 1 0.0 3.0 18 59
+ 0.475 1 2 cbr 500 ------- 0 1.0 3.1 55 105
- 0.475 1 2 cbr 500 ------- 0 1.0 3.1 55 105
r 0.4768 2 3 tcp 1040 ------- 1 0.0 3.0 17 58
+ 0.4768 3 2 ack 40 ------- 1 3.0 0.0 17 106
- 0.4768 3 2 ack 40 ------- 1 3.0 0.0 17 106
r 0.479 1 2 cbr 500 ------- 0 1.0 3.1 53 101
+ 0.479 2 3 cbr 500 ------- 0 1.0 3.1 53 101
- 0.47968 0 2 tcp 1040 ------- 1 0.0 3.0 32 103
+ 0.48 1 2 cbr 500 ------- 0 1.0 3.1 56 107
- 0.48 1 2 cbr 500 ------- 0 1.0 3.1 56 107
r 0.4808 2 3 cbr 500 ------- 0 1.0 3.1 32 61
r 0.48136 0 2 tcp 1040 ------- 1 0.0 3.0 30 94
+ 0.48136 2 3 tcp 1040 ------- 1 0.0 3.0 30 94
- 0.48312 2 3 cbr 500 ------- 0 1.0 3.1 34 66
r 0.484 1 2 cbr 500 ------- 0 1.0 3.1 54 104
+ 0.484 2 3 cbr 500 ------- 0 1.0 3.1 54 104
r 0.4848 2 3 cbr 500 ------- 0 1.0 3.1 33 63
+ 0.485 1 2 cbr 500 ------- 0 1.0 3.1 57 108
- 0.485 1 2 cbr 500 ------- 0 1.0 3.1 57 108
r 0.48512 2 0 ack 40 ------- 1 3.0 0.0 16 100
+ 0.48512 0 2 tcp 1040 ------- 1 0.0 3.0 33 109
+ 0.48512 0 2 tcp 1040 ------- 1 0.0 3.0 34 110
r 0.48712 3 2 ack 40 ------- 1 3.0 0.0 17 106
+ 0.48712 2 0 ack 40 ------- 1 3.0 0.0 17 106
- 0.48712 2 0 ack 40 ------- 1 3.0 0.0 17 106
- 0.48712 2 3 cbr 500 ------- 0 1.0 3.1 35 68
- 0.488 0 2 tcp 1040 ------- 1 0.0 3.0 33 109
r 0.489 1 2 cbr 500 ------- 0 1.0 3.1 55 105
+ 0.489 2 3 cbr 500 ------- 0 1.0 3.1 55 105
r 0.48968 0 2 tcp 1040 ------- 1 0.0 3.0 31 102
+ 0.48968 2 3 tcp 1040 ------- 1 0.0 3.0 31 102
+ 0.49 1 2 cbr 500 ------- 0 1.0 3.1 58 111
- 0.49 1 2 cbr 500 ------- 0 1.0 3.1 58 111
- 0.49112 2 3 tcp 1040 ------- 1 0.0 3.0 19 64
r 0.49312 2 3 tcp 1040 ------- 1 0.0 3.0 18 59
+ 0.49312 3 2 ack 40 ------- 1 3.0 0.0 18 112
- 0.49312 3 2 ack 40 ------- 1 3.0 0.0 18 112
r 0.494 1 2 cbr 500 ------- 0 1.0 3.1 56 107
+ 0.494 2 3 cbr 500 ------- 0 1.0 3.1 56 107
+ 0.495 1 2 cbr 500 ------- 0 1.0 3.1 59 113
- 0.495 1 2 cbr 500 ------- 0 1.0 3.1 59 113
- 0.49632 0 2 tcp 1040 ------- 1 0.0 3.0 34 110
r 0.49712 2 3 cbr 500 ------- 0 1.0 3.1 34 66
r 0.49744 2 0 ack 40 ------- 1 3.0 0.0 17 106
+ 0.49744 0 2 tcp 1040 ------- 1 0.0 3.0 35 114
+ 0.49744 0 2 tcp 1040 ------- 1 0.0 3.0 36 115
r 0.498 0 2 tcp 1040 ------- 1 0.0 3.0 32 103
+ 0.498 2 3 tcp 1040 ------- 1 0.0 3.0 32 103
r 0.499 1 2 cbr 500 ------- 0 1.0 3.1 57 108
+ 0.499 2 3 cbr 500 ------- 0 1.0 3.1 57 108
- 0.49944 2 3 cbr 500 ------- 0 1.0 3.1 36 69
+ 0.5 1 2 cbr 500 ------- 0 1.0 3.1 60 116
- 0.5 1 2 cbr 500 ------- 0 1.0 3.1 60 116
r 0.50112 2 3 cbr 500 ------- 0 1.0 3.1 35 68
- 0.50344 2 3 tcp 1040 ------- 1 0.0 3.0 20 65
r 0.50344 3 2 ack 40 ------- 1 3.0 0.0 18 112
+ 0.50344 2 0 ack 40 ------- 1 3.0 0.0 18 112
- 0.50344 2 0 ack 40 ------- 1 3.0 0.0 18 112
r 0.504 1 2 cbr 500 ------- 0 1.0 3.1 58 111
+ 0.504 2 3 cbr 500 ------- 0 1.0 3.1 58 111
- 0.50464 0 2 tcp 1040 ------- 1 0.0 3.0 35 114
+ 0.505 1 2 cbr 500 ------- 0 1.0 3.1 61 117
- 0.505 1 2 cbr 500 ------- 0 1.0 3.1 61 117
r 0.50632 0 2 tcp 1040 ------- 1 0.0 3.0 33 109
+ 0.50632 2 3 tcp 1040 ------- 1 0.0 3.0 33 109
r 0.509 1 2 cbr 500 ------- 0 1.0 3.1 59 113
+ 0.509 2 3 cbr 500 ------- 0 1.0 3.1 59 113
r 0.50944 2 3 tcp 1040 ------- 1 0.0 3.0 19 64
+ 0.50944 3 2 ack 40 ------- 1 3.0 0.0 19 118
- 0.50944 3 2 ack 40 ------- 1 3.0 0.0 19 118
+ 0.51 1 2 cbr 500 ------- 0 1.0 3.1 62 119
- 0.51 1 2 cbr 500 ------- 0 1.0 3.1 62 119
- 0.51176 2 3 cbr 500 ------- 0 1.0 3.1 37 72
- 0.51296 0 2 tcp 1040 ------- 1 0.0 3.0 36 115
r 0.51344 2 3 cbr 500 ------- 0 1.0 3.1 36 69
r 0.51376 2 0 ack 40 ------- 1 3.0 0.0 18 112
+ 0.51376 0 2 tcp 1040 ------- 1 0.0 3.0 37 120
+ 0.51376 0 2 tcp 1040 ------- 1 0.0 3.0 38 121
r 0.514 1 2 cbr 500 ------- 0 1.0 3.1 60 116
+ 0.514 2 3 cbr 500 ------- 0 1.0 3.1 60 116
r 0.51464 0 2 tcp 1040 ------- 1 0.0 3.0 34 110
+ 0.51464 2 3 tcp 1040 ------- 1 0.0 3.0 34 110
+ 0.515 1 2 cbr 500 ------- 0 1.0 3.1 63 122
- 0.515 1 2 cbr 500 ------- 0 1.0 3.1 63 122
- 0.51576 2 3 cbr 500 ------- 0 1.0 3.1 38 73
r 0.519 1 2 cbr 500 ------- 0 1.0 3.1 61 117
+ 0.519 2 3 cbr 500 ------- 0 1.0 3.1 61 117
r 0.51976 3 2 ack 40 ------- 1 3.0 0.0 19 118
+ 0.51976 2 0 ack 40 ------- 1 3.0 0.0 19 118
- 0.51976 2 0 ack 40 ------- 1 3.0 0.0 19 118
- 0.51976 2 3 tcp 1040 ------- 1 0.0 3.0 21 70
+ 0.52 1 2 cbr 500 ------- 0 1.0 3.1 64 123
- 0.52 1 2 cbr 500 ------- 0 1.0 3.1 64 123
- 0.52128 0 2 tcp 1040 ------- 1 0.0 3.0 37 120
r 0.52176 2 3 tcp 1040 ------- 1 0.0 3.0 20 65
+ 0.52176 3 2 ack 40 ------- 1 3.0 0.0 20 124
- 0.52176 3 2 ack 40 ------- 1 3.0 0.0 20 124
r 0.52296 0 2 tcp 1040 ------- 1 0.0 3.0 35 114
+ 0.52296 2 3 tcp 1040 ------- 1 0.0 3.0 35 114
r 0.524 1 2 cbr 500 ------- 0 1.0 3.1 62 119
+ 0.524 2 3 cbr 500 ------- 0 1.0 3.1 62 119
+ 0.525 1 2 cbr 500 ------- 0 1.0 3.1 65 125
- 0.525 1 2 cbr 500 ------- 0 1.0 3.1 65 125
r 0.52576 2 3 cbr 500 ------- 0 1.0 3.1 37 72
- 0.52808 2 3 cbr 500 ------- 0 1.0 3.1 39 75
r 0.529 1 2 cbr 500 ------- 0 1.0 3.1 63 122
+ 0.529 2 3 cbr 500 ------- 0 1.0 3.1 63 122
- 0.5296 0 2 tcp 1040 ------- 1 0.0 3.0 38 121
r 0.52976 2 3 cbr 500 ------- 0 1.0 3.1 38 73
+ 0.53 1 2 cbr 500 ------- 0 1.0 3.1 66 126
- 0.53 1 2 cbr 500 ------- 0 1.0 3.1 66 126
r 0.53008 2 0 ack 40 ------- 1 3.0 0.0 19 118
+ 0.53008 0 2 tcp 1040 ------- 1 0.0 3.0 39 127
r 0.53128 0 2 tcp 1040 ------- 1 0.0 3.0 36 115
+ 0.53128 2 3 tcp 1040 ------- 1 0.0 3.0 36 115
r 0.53208 3 2 ack 40 ------- 1 3.0 0.0 20 124
+ 0.53208 2 0 ack 40 ------- 1 3.0 0.0 20 124
- 0.53208 2 0 ack 40 ------- 1 3.0 0.0 20 124
- 0.53208 2 3 cbr 500 ------- 0 1.0 3.1 40 78
r 0.534 1 2 cbr 500 ------- 0 1.0 3.1 64 123
+ 0.534 2 3 cbr 500 ------- 0 1.0 3.1 64 123
+ 0.535 1 2 cbr 500 ------- 0 1.0 3.1 67 128
- 0.535 1 2 cbr 500 ------- 0 1.0 3.1 67 128
- 0.53608 2 3 tcp 1040 ------- 1 0.0 3.0 22 71